
     Program PWSCF v.7.3.1 starts on 12Jul2026 at  2:49:13 

     This program is part of the open-source Quantum ESPRESSO suite
     for quantum simulation of materials; please cite
         "P. Giannozzi et al., J. Phys.:Condens. Matter 21 395502 (2009);
         "P. Giannozzi et al., J. Phys.:Condens. Matter 29 465901 (2017);
         "P. Giannozzi et al., J. Chem. Phys. 152 154105 (2020);
          URL http://www.quantum-espresso.org", 
     in publications or presentations arising from this work. More details at
     http://www.quantum-espresso.org/quote

     Parallel version (MPI & OpenMP), running on      14 processor cores
     Number of MPI processes:                 1
     Threads/MPI process:                    14

     MPI processes distributed on     1 nodes
     843978 MiB available memory on the printing compute node when the environment starts
 
     Reading input from pw.in

     Current dimensions of program PWSCF are:
     Max number of different atomic species (ntypx) = 10
     Max number of k-points (npk) =  40000
     Max angular momentum in pseudopotentials (lmaxx) =  4
     file Co.pbe-spn-kjpaw_psl.0.3.1.UPF: wavefunction(s)  3P 3D renormalized
     file O.pbe-n-kjpaw_psl.1.0.0.UPF: wavefunction(s)  2S 2P renormalized

     Atomic positions and unit cell read from directory:
     ../Li_1x1_c9.9_d1.00/out/pw.save/
 
 
     Subspace diagonalization in iterative solution of the eigenvalue problem:
     a serial algorithm will be used

 
     G-vector sticks info
     --------------------
     sticks:   dense  smooth     PW     G-vecs:    dense   smooth      PW
     Sum         931     475    151                81725    28863    4893
 
     Using Slab Decomposition
 


     bravais-lattice index     =            4
     lattice parameter (alat)  =       5.3290  a.u.
     unit-cell volume          =     460.1089 (a.u.)^3
     number of atoms/cell      =            4
     number of atomic types    =            3
     number of electrons       =        32.00
     number of Kohn-Sham states=           24
     kinetic-energy cutoff     =      60.0000  Ry
     charge density cutoff     =     480.0000  Ry
     Exchange-correlation= SLA  PW   PBX  PBC
                           (   1   4   3   4   0   0   0)

     GPU acceleration is ACTIVE.  1 visible GPUs per MPI rank
     GPU-aware MPI enabled


     GPU used by master process:

        Device Number: 0
        Device name: NVIDIA A100-SXM4-80GB
        Compute capability : 80
        Ratio of single to double precision performance  : 2
        Memory Clock Rate (KHz): 1593000
        Memory Bus Width (bits): 5120
        Peak Memory Bandwidth (GB/s): ******

     celldm(1)=   5.329028  celldm(2)=   0.000000  celldm(3)=   3.510638
     celldm(4)=   0.000000  celldm(5)=   0.000000  celldm(6)=   0.000000

     crystal axes: (cart. coord. in units of alat)
               a(1) = (   1.000000   0.000000   0.000000 )  
               a(2) = (  -0.500000   0.866025   0.000000 )  
               a(3) = (   0.000000   0.000000   3.510638 )  

     reciprocal axes: (cart. coord. in units 2 pi/alat)
               b(1) = (  1.000000  0.577350 -0.000000 )  
               b(2) = (  0.000000  1.154701  0.000000 )  
               b(3) = (  0.000000 -0.000000  0.284848 )  


     PseudoPot. # 1 for Co read from file:
     ../../pseudo/Co.pbe-spn-kjpaw_psl.0.3.1.UPF
     MD5 check sum: 3c0a43779828c046024e4f3be63f8e67
     Pseudo is Projector augmented-wave + core cor, Zval = 17.0
     Generated using &quot;atomic&quot; code by A. Dal Corso  v.6.2.2
     Shape of augmentation charge: PSQ
     Using radial grid of 1193 points,  6 beta functions with: 
                l(1) =   0
                l(2) =   0
                l(3) =   1
                l(4) =   1
                l(5) =   2
                l(6) =   2
     Q(r) pseudized with 0 coefficients 


     PseudoPot. # 2 for O  read from file:
     ../../pseudo/O.pbe-n-kjpaw_psl.1.0.0.UPF
     MD5 check sum: e99d9cef9b487d1ca56f5b95ecd0fd7a
     Pseudo is Projector augmented-wave + core cor, Zval =  6.0
     Generated using &quot;atomic&quot; code by A. Dal Corso  v.6.3
     Shape of augmentation charge: PSQ
     Using radial grid of 1095 points,  4 beta functions with: 
                l(1) =   0
                l(2) =   0
                l(3) =   1
                l(4) =   1
     Q(r) pseudized with 0 coefficients 


     PseudoPot. # 3 for Li read from file:
     ../../pseudo/Li.pbe-s-kjpaw_psl.1.0.0.UPF
     MD5 check sum: 3974953fb0fea6c4f83fb01d64ffc134
     Pseudo is Projector augmented-wave, Zval =  3.0
     Generated using &quot;atomic&quot; code by A. Dal Corso  v.6.3
     Shape of augmentation charge: PSQ
     Using radial grid of 1017 points,  4 beta functions with: 
                l(1) =   0
                l(2) =   0
                l(3) =   1
                l(4) =   1
     Q(r) pseudized with 0 coefficients 


     atomic species   valence    mass     pseudopotential
     Co               17.00    58.93300     Co( 1.00)
     O                 6.00    15.99900     O ( 1.00)
     Li                3.00     6.94100     Li( 1.00)

     Starting magnetic structure 
     atomic species   magnetization
     Co              0.300
     O               0.000
     Li              0.000

      6 Sym. Ops. (no inversion) found


                                    s                        frac. trans.

      isym =  1     identity                                     

 cryst.   s( 1) = (     1          0          0      )
                  (     0          1          0      )
                  (     0          0          1      )

 cart.    s( 1) = (  1.0000000  0.0000000  0.0000000 )
                  (  0.0000000  1.0000000  0.0000000 )
                  (  0.0000000  0.0000000  1.0000000 )


      isym =  2     120 deg rotation - cryst. axis [0,0,1]       

 cryst.   s( 2) = (     0          1          0      )
                  (    -1         -1          0      )
                  (     0          0          1      )

 cart.    s( 2) = ( -0.5000000 -0.8660254  0.0000000 )
                  (  0.8660254 -0.5000000  0.0000000 )
                  (  0.0000000  0.0000000  1.0000000 )


      isym =  3     120 deg rotation - cryst. axis [0,0,-1]      

 cryst.   s( 3) = (    -1         -1          0      )
                  (     1          0          0      )
                  (     0          0          1      )

 cart.    s( 3) = ( -0.5000000  0.8660254  0.0000000 )
                  ( -0.8660254 -0.5000000  0.0000000 )
                  (  0.0000000  0.0000000  1.0000000 )


      isym =  4     inv. 180 deg rotation - cart. axis [1,0,0]   

 cryst.   s( 4) = (    -1          0          0      )
                  (     1          1          0      )
                  (     0          0          1      )

 cart.    s( 4) = ( -1.0000000  0.0000000  0.0000000 )
                  (  0.0000000  1.0000000  0.0000000 )
                  (  0.0000000  0.0000000  1.0000000 )


      isym =  5     inv. 180 deg rotation - cryst. axis [0,1,0]  

 cryst.   s( 5) = (     1          1          0      )
                  (     0         -1          0      )
                  (     0          0          1      )

 cart.    s( 5) = (  0.5000000  0.8660254  0.0000000 )
                  (  0.8660254 -0.5000000  0.0000000 )
                  (  0.0000000  0.0000000  1.0000000 )


      isym =  6     inv. 180 deg rotation - cryst. axis [1,1,0]  

 cryst.   s( 6) = (     0         -1          0      )
                  (    -1          0          0      )
                  (     0          0          1      )

 cart.    s( 6) = (  0.5000000 -0.8660254  0.0000000 )
                  ( -0.8660254 -0.5000000  0.0000000 )
                  (  0.0000000  0.0000000  1.0000000 )


     point group C_3v (3m)  
     there are  3 classes
     the character table:

       E     2C3   3s_v 
A_1    1.00  1.00  1.00
A_2    1.00  1.00 -1.00
E      2.00 -1.00  0.00

     the symmetry operations in each class and the name of the first element:

     E        1
          identity                                               
     2C3      2    3
          120 deg rotation - cryst. axis [0,0,1]                 
     3s_v     4    5    6
          inv. 180 deg rotation - cart. axis [1,0,0]             

   Cartesian axes

     site n.     atom                  positions (alat units)
         1        Co     tau(   1) = (   0.0000000   0.0000000   0.0000000  )
         2        O      tau(   2) = (  -0.0000000   0.5773503   0.3404255  )
         3        O      tau(   3) = (   0.5000000   0.2886751   3.1702128  )
         4        Li     tau(   4) = (   0.0000000   0.0000000   2.1099291  )

   Crystallographic axes

     site n.     atom                  positions (cryst. coord.)
         1        Co     tau(   1) = (  0.0000000  0.0000000  0.0000000  )
         2        O      tau(   2) = (  0.3333333  0.6666667  0.0969697  )
         3        O      tau(   3) = (  0.6666667  0.3333333  0.9030303  )
         4        Li     tau(   4) = (  0.0000000  0.0000000  0.6010101  )

     number of k points=   449  Marzari-Vanderbilt smearing, width (Ry)=  0.0200
                       cart. coord. in units 2pi/alat
        k(    1) = (   0.0000000   0.0000000   0.0000000), wk =   0.0002170
        k(    2) = (   0.0000000   0.0000000   0.0356061), wk =   0.0004340
        k(    3) = (   0.0000000   0.0000000   0.0712121), wk =   0.0004340
        k(    4) = (   0.0000000   0.0000000   0.1068182), wk =   0.0004340
        k(    5) = (   0.0000000   0.0000000  -0.1424242), wk =   0.0002170
        k(    6) = (   0.0000000   0.0481125   0.0000000), wk =   0.0013021
        k(    7) = (   0.0000000   0.0481125   0.0356061), wk =   0.0013021
        k(    8) = (   0.0000000   0.0481125   0.0712121), wk =   0.0013021
        k(    9) = (   0.0000000   0.0481125   0.1068182), wk =   0.0013021
        k(   10) = (   0.0000000   0.0481125  -0.1424242), wk =   0.0013021
        k(   11) = (   0.0000000   0.0962250   0.0000000), wk =   0.0013021
        k(   12) = (   0.0000000   0.0962250   0.0356061), wk =   0.0013021
        k(   13) = (   0.0000000   0.0962250   0.0712121), wk =   0.0013021
        k(   14) = (   0.0000000   0.0962250   0.1068182), wk =   0.0013021
        k(   15) = (   0.0000000   0.0962250  -0.1424242), wk =   0.0013021
        k(   16) = (   0.0000000   0.1443376   0.0000000), wk =   0.0013021
        k(   17) = (   0.0000000   0.1443376   0.0356061), wk =   0.0013021
        k(   18) = (   0.0000000   0.1443376   0.0712121), wk =   0.0013021
        k(   19) = (   0.0000000   0.1443376   0.1068182), wk =   0.0013021
        k(   20) = (   0.0000000   0.1443376  -0.1424242), wk =   0.0013021
        k(   21) = (   0.0000000   0.1924501   0.0000000), wk =   0.0013021
        k(   22) = (   0.0000000   0.1924501   0.0356061), wk =   0.0013021
        k(   23) = (   0.0000000   0.1924501   0.0712121), wk =   0.0013021
        k(   24) = (   0.0000000   0.1924501   0.1068182), wk =   0.0013021
        k(   25) = (   0.0000000   0.1924501  -0.1424242), wk =   0.0013021
        k(   26) = (   0.0000000   0.2405626   0.0000000), wk =   0.0013021
        k(   27) = (   0.0000000   0.2405626   0.0356061), wk =   0.0013021
        k(   28) = (   0.0000000   0.2405626   0.0712121), wk =   0.0013021
        k(   29) = (   0.0000000   0.2405626   0.1068182), wk =   0.0013021
        k(   30) = (   0.0000000   0.2405626  -0.1424242), wk =   0.0013021
        k(   31) = (   0.0000000   0.2886751   0.0000000), wk =   0.0013021
        k(   32) = (   0.0000000   0.2886751   0.0356061), wk =   0.0013021
        k(   33) = (   0.0000000   0.2886751   0.0712121), wk =   0.0013021
        k(   34) = (   0.0000000   0.2886751   0.1068182), wk =   0.0013021
        k(   35) = (   0.0000000   0.2886751  -0.1424242), wk =   0.0013021
        k(   36) = (   0.0000000   0.3367877   0.0000000), wk =   0.0013021
        k(   37) = (   0.0000000   0.3367877   0.0356061), wk =   0.0013021
        k(   38) = (   0.0000000   0.3367877   0.0712121), wk =   0.0013021
        k(   39) = (   0.0000000   0.3367877   0.1068182), wk =   0.0013021
        k(   40) = (   0.0000000   0.3367877  -0.1424242), wk =   0.0013021
        k(   41) = (   0.0000000   0.3849002   0.0000000), wk =   0.0013021
        k(   42) = (   0.0000000   0.3849002   0.0356061), wk =   0.0013021
        k(   43) = (   0.0000000   0.3849002   0.0712121), wk =   0.0013021
        k(   44) = (   0.0000000   0.3849002   0.1068182), wk =   0.0013021
        k(   45) = (   0.0000000   0.3849002  -0.1424242), wk =   0.0013021
        k(   46) = (   0.0000000   0.4330127   0.0000000), wk =   0.0013021
        k(   47) = (   0.0000000   0.4330127   0.0356061), wk =   0.0013021
        k(   48) = (   0.0000000   0.4330127   0.0712121), wk =   0.0013021
        k(   49) = (   0.0000000   0.4330127   0.1068182), wk =   0.0013021
        k(   50) = (   0.0000000   0.4330127  -0.1424242), wk =   0.0013021
        k(   51) = (   0.0000000   0.4811252   0.0000000), wk =   0.0013021
        k(   52) = (   0.0000000   0.4811252   0.0356061), wk =   0.0013021
        k(   53) = (   0.0000000   0.4811252   0.0712121), wk =   0.0013021
        k(   54) = (   0.0000000   0.4811252   0.1068182), wk =   0.0013021
        k(   55) = (   0.0000000   0.4811252  -0.1424242), wk =   0.0013021
        k(   56) = (   0.0000000   0.5292377   0.0000000), wk =   0.0013021
        k(   57) = (   0.0000000   0.5292377   0.0356061), wk =   0.0013021
        k(   58) = (   0.0000000   0.5292377   0.0712121), wk =   0.0013021
        k(   59) = (   0.0000000   0.5292377   0.1068182), wk =   0.0013021
        k(   60) = (   0.0000000   0.5292377  -0.1424242), wk =   0.0013021
        k(   61) = (   0.0000000  -0.5773503   0.0000000), wk =   0.0006510
        k(   62) = (   0.0000000  -0.5773503   0.0356061), wk =   0.0013021
        k(   63) = (   0.0000000  -0.5773503   0.0712121), wk =   0.0013021
        k(   64) = (   0.0000000  -0.5773503   0.1068182), wk =   0.0013021
        k(   65) = (   0.0000000  -0.5773503  -0.1424242), wk =   0.0006510
        k(   66) = (   0.0416667   0.0721688   0.0000000), wk =   0.0013021
        k(   67) = (   0.0416667   0.0721688   0.0356061), wk =   0.0026042
        k(   68) = (   0.0416667   0.0721688   0.0712121), wk =   0.0026042
        k(   69) = (   0.0416667   0.0721688   0.1068182), wk =   0.0026042
        k(   70) = (   0.0416667   0.0721688  -0.1424242), wk =   0.0013021
        k(   71) = (   0.0416667   0.1202813   0.0000000), wk =   0.0026042
        k(   72) = (   0.0416667   0.1202813   0.0356061), wk =   0.0026042
        k(   73) = (   0.0416667   0.1202813   0.0712121), wk =   0.0026042
        k(   74) = (   0.0416667   0.1202813   0.1068182), wk =   0.0026042
        k(   75) = (   0.0416667   0.1202813  -0.1424242), wk =   0.0026042
        k(   76) = (   0.0416667   0.1683938   0.0000000), wk =   0.0026042
        k(   77) = (   0.0416667   0.1683938   0.0356061), wk =   0.0026042
        k(   78) = (   0.0416667   0.1683938   0.0712121), wk =   0.0026042
        k(   79) = (   0.0416667   0.1683938   0.1068182), wk =   0.0026042
        k(   80) = (   0.0416667   0.1683938  -0.1424242), wk =   0.0026042
        k(   81) = (   0.0416667   0.2165064   0.0000000), wk =   0.0026042
        k(   82) = (   0.0416667   0.2165064   0.0356061), wk =   0.0026042
        k(   83) = (   0.0416667   0.2165064   0.0712121), wk =   0.0026042
        k(   84) = (   0.0416667   0.2165064   0.1068182), wk =   0.0026042
        k(   85) = (   0.0416667   0.2165064  -0.1424242), wk =   0.0026042
        k(   86) = (   0.0416667   0.2646189   0.0000000), wk =   0.0026042
        k(   87) = (   0.0416667   0.2646189   0.0356061), wk =   0.0026042
        k(   88) = (   0.0416667   0.2646189   0.0712121), wk =   0.0026042
        k(   89) = (   0.0416667   0.2646189   0.1068182), wk =   0.0026042
        k(   90) = (   0.0416667   0.2646189  -0.1424242), wk =   0.0026042
        k(   91) = (   0.0416667   0.3127314   0.0000000), wk =   0.0026042
        k(   92) = (   0.0416667   0.3127314   0.0356061), wk =   0.0026042
        k(   93) = (   0.0416667   0.3127314   0.0712121), wk =   0.0026042
        k(   94) = (   0.0416667   0.3127314   0.1068182), wk =   0.0026042
        k(   95) = (   0.0416667   0.3127314  -0.1424242), wk =   0.0026042
        k(   96) = (   0.0416667   0.3608439   0.0000000), wk =   0.0026042
        k(   97) = (   0.0416667   0.3608439   0.0356061), wk =   0.0026042
        k(   98) = (   0.0416667   0.3608439   0.0712121), wk =   0.0026042
        k(   99) = (   0.0416667   0.3608439   0.1068182), wk =   0.0026042
        k(  100) = (   0.0416667   0.3608439  -0.1424242), wk =   0.0026042
        k(  101) = (   0.0416667   0.4089564   0.0000000), wk =   0.0026042
        k(  102) = (   0.0416667   0.4089564   0.0356061), wk =   0.0026042
        k(  103) = (   0.0416667   0.4089564   0.0712121), wk =   0.0026042
        k(  104) = (   0.0416667   0.4089564   0.1068182), wk =   0.0026042
        k(  105) = (   0.0416667   0.4089564  -0.1424242), wk =   0.0026042
        k(  106) = (   0.0416667   0.4570690   0.0000000), wk =   0.0026042
        k(  107) = (   0.0416667   0.4570690   0.0356061), wk =   0.0026042
        k(  108) = (   0.0416667   0.4570690   0.0712121), wk =   0.0026042
        k(  109) = (   0.0416667   0.4570690   0.1068182), wk =   0.0026042
        k(  110) = (   0.0416667   0.4570690  -0.1424242), wk =   0.0026042
        k(  111) = (   0.0416667   0.5051815   0.0000000), wk =   0.0026042
        k(  112) = (   0.0416667   0.5051815   0.0356061), wk =   0.0026042
        k(  113) = (   0.0416667   0.5051815   0.0712121), wk =   0.0026042
        k(  114) = (   0.0416667   0.5051815   0.1068182), wk =   0.0026042
        k(  115) = (   0.0416667   0.5051815  -0.1424242), wk =   0.0026042
        k(  116) = (   0.0416667   0.5532940   0.0000000), wk =   0.0026042
        k(  117) = (   0.0416667   0.5532940   0.0356061), wk =   0.0026042
        k(  118) = (   0.0416667   0.5532940   0.0712121), wk =   0.0026042
        k(  119) = (   0.0416667   0.5532940   0.1068182), wk =   0.0026042
        k(  120) = (   0.0416667   0.5532940  -0.1424242), wk =   0.0026042
        k(  121) = (   0.0833333   0.1443376   0.0000000), wk =   0.0013021
        k(  122) = (   0.0833333   0.1443376   0.0356061), wk =   0.0026042
        k(  123) = (   0.0833333   0.1443376   0.0712121), wk =   0.0026042
        k(  124) = (   0.0833333   0.1443376   0.1068182), wk =   0.0026042
        k(  125) = (   0.0833333   0.1443376  -0.1424242), wk =   0.0013021
        k(  126) = (   0.0833333   0.1924501   0.0000000), wk =   0.0026042
        k(  127) = (   0.0833333   0.1924501   0.0356061), wk =   0.0026042
        k(  128) = (   0.0833333   0.1924501   0.0712121), wk =   0.0026042
        k(  129) = (   0.0833333   0.1924501   0.1068182), wk =   0.0026042
        k(  130) = (   0.0833333   0.1924501  -0.1424242), wk =   0.0026042
        k(  131) = (   0.0833333   0.2405626   0.0000000), wk =   0.0026042
        k(  132) = (   0.0833333   0.2405626   0.0356061), wk =   0.0026042
        k(  133) = (   0.0833333   0.2405626   0.0712121), wk =   0.0026042
        k(  134) = (   0.0833333   0.2405626   0.1068182), wk =   0.0026042
        k(  135) = (   0.0833333   0.2405626  -0.1424242), wk =   0.0026042
        k(  136) = (   0.0833333   0.2886751   0.0000000), wk =   0.0026042
        k(  137) = (   0.0833333   0.2886751   0.0356061), wk =   0.0026042
        k(  138) = (   0.0833333   0.2886751   0.0712121), wk =   0.0026042
        k(  139) = (   0.0833333   0.2886751   0.1068182), wk =   0.0026042
        k(  140) = (   0.0833333   0.2886751  -0.1424242), wk =   0.0026042
        k(  141) = (   0.0833333   0.3367877   0.0000000), wk =   0.0026042
        k(  142) = (   0.0833333   0.3367877   0.0356061), wk =   0.0026042
        k(  143) = (   0.0833333   0.3367877   0.0712121), wk =   0.0026042
        k(  144) = (   0.0833333   0.3367877   0.1068182), wk =   0.0026042
        k(  145) = (   0.0833333   0.3367877  -0.1424242), wk =   0.0026042
        k(  146) = (   0.0833333   0.3849002   0.0000000), wk =   0.0026042
        k(  147) = (   0.0833333   0.3849002   0.0356061), wk =   0.0026042
        k(  148) = (   0.0833333   0.3849002   0.0712121), wk =   0.0026042
        k(  149) = (   0.0833333   0.3849002   0.1068182), wk =   0.0026042
        k(  150) = (   0.0833333   0.3849002  -0.1424242), wk =   0.0026042
        k(  151) = (   0.0833333   0.4330127   0.0000000), wk =   0.0026042
        k(  152) = (   0.0833333   0.4330127   0.0356061), wk =   0.0026042
        k(  153) = (   0.0833333   0.4330127   0.0712121), wk =   0.0026042
        k(  154) = (   0.0833333   0.4330127   0.1068182), wk =   0.0026042
        k(  155) = (   0.0833333   0.4330127  -0.1424242), wk =   0.0026042
        k(  156) = (   0.0833333   0.4811252   0.0000000), wk =   0.0026042
        k(  157) = (   0.0833333   0.4811252   0.0356061), wk =   0.0026042
        k(  158) = (   0.0833333   0.4811252   0.0712121), wk =   0.0026042
        k(  159) = (   0.0833333   0.4811252   0.1068182), wk =   0.0026042
        k(  160) = (   0.0833333   0.4811252  -0.1424242), wk =   0.0026042
        k(  161) = (   0.0833333   0.5292377   0.0000000), wk =   0.0026042
        k(  162) = (   0.0833333   0.5292377   0.0356061), wk =   0.0026042
        k(  163) = (   0.0833333   0.5292377   0.0712121), wk =   0.0026042
        k(  164) = (   0.0833333   0.5292377   0.1068182), wk =   0.0026042
        k(  165) = (   0.0833333   0.5292377  -0.1424242), wk =   0.0026042
        k(  166) = (   0.0833333   0.5773503   0.0000000), wk =   0.0013021
        k(  167) = (   0.0833333   0.5773503   0.0356061), wk =   0.0026042
        k(  168) = (   0.0833333   0.5773503   0.0712121), wk =   0.0026042
        k(  169) = (   0.0833333   0.5773503   0.1068182), wk =   0.0026042
        k(  170) = (   0.0833333   0.5773503  -0.1424242), wk =   0.0013021
        k(  171) = (   0.1250000   0.2165064   0.0000000), wk =   0.0013021
        k(  172) = (   0.1250000   0.2165064   0.0356061), wk =   0.0026042
        k(  173) = (   0.1250000   0.2165064   0.0712121), wk =   0.0026042
        k(  174) = (   0.1250000   0.2165064   0.1068182), wk =   0.0026042
        k(  175) = (   0.1250000   0.2165064  -0.1424242), wk =   0.0013021
        k(  176) = (   0.1250000   0.2646189   0.0000000), wk =   0.0026042
        k(  177) = (   0.1250000   0.2646189   0.0356061), wk =   0.0026042
        k(  178) = (   0.1250000   0.2646189   0.0712121), wk =   0.0026042
        k(  179) = (   0.1250000   0.2646189   0.1068182), wk =   0.0026042
        k(  180) = (   0.1250000   0.2646189  -0.1424242), wk =   0.0026042
        k(  181) = (   0.1250000   0.3127314   0.0000000), wk =   0.0026042
        k(  182) = (   0.1250000   0.3127314   0.0356061), wk =   0.0026042
        k(  183) = (   0.1250000   0.3127314   0.0712121), wk =   0.0026042
        k(  184) = (   0.1250000   0.3127314   0.1068182), wk =   0.0026042
        k(  185) = (   0.1250000   0.3127314  -0.1424242), wk =   0.0026042
        k(  186) = (   0.1250000   0.3608439   0.0000000), wk =   0.0026042
        k(  187) = (   0.1250000   0.3608439   0.0356061), wk =   0.0026042
        k(  188) = (   0.1250000   0.3608439   0.0712121), wk =   0.0026042
        k(  189) = (   0.1250000   0.3608439   0.1068182), wk =   0.0026042
        k(  190) = (   0.1250000   0.3608439  -0.1424242), wk =   0.0026042
        k(  191) = (   0.1250000   0.4089564   0.0000000), wk =   0.0026042
        k(  192) = (   0.1250000   0.4089564   0.0356061), wk =   0.0026042
        k(  193) = (   0.1250000   0.4089564   0.0712121), wk =   0.0026042
        k(  194) = (   0.1250000   0.4089564   0.1068182), wk =   0.0026042
        k(  195) = (   0.1250000   0.4089564  -0.1424242), wk =   0.0026042
        k(  196) = (   0.1250000   0.4570690   0.0000000), wk =   0.0026042
        k(  197) = (   0.1250000   0.4570690   0.0356061), wk =   0.0026042
        k(  198) = (   0.1250000   0.4570690   0.0712121), wk =   0.0026042
        k(  199) = (   0.1250000   0.4570690   0.1068182), wk =   0.0026042
        k(  200) = (   0.1250000   0.4570690  -0.1424242), wk =   0.0026042
        k(  201) = (   0.1250000   0.5051815   0.0000000), wk =   0.0026042
        k(  202) = (   0.1250000   0.5051815   0.0356061), wk =   0.0026042
        k(  203) = (   0.1250000   0.5051815   0.0712121), wk =   0.0026042
        k(  204) = (   0.1250000   0.5051815   0.1068182), wk =   0.0026042
        k(  205) = (   0.1250000   0.5051815  -0.1424242), wk =   0.0026042
        k(  206) = (   0.1250000   0.5532940   0.0000000), wk =   0.0026042
        k(  207) = (   0.1250000   0.5532940   0.0356061), wk =   0.0026042
        k(  208) = (   0.1250000   0.5532940   0.0712121), wk =   0.0026042
        k(  209) = (   0.1250000   0.5532940   0.1068182), wk =   0.0026042
        k(  210) = (   0.1250000   0.5532940  -0.1424242), wk =   0.0026042
        k(  211) = (   0.1666667   0.2886751   0.0000000), wk =   0.0013021
        k(  212) = (   0.1666667   0.2886751   0.0356061), wk =   0.0026042
        k(  213) = (   0.1666667   0.2886751   0.0712121), wk =   0.0026042
        k(  214) = (   0.1666667   0.2886751   0.1068182), wk =   0.0026042
        k(  215) = (   0.1666667   0.2886751  -0.1424242), wk =   0.0013021
        k(  216) = (   0.1666667   0.3367877   0.0000000), wk =   0.0026042
        k(  217) = (   0.1666667   0.3367877   0.0356061), wk =   0.0026042
        k(  218) = (   0.1666667   0.3367877   0.0712121), wk =   0.0026042
        k(  219) = (   0.1666667   0.3367877   0.1068182), wk =   0.0026042
        k(  220) = (   0.1666667   0.3367877  -0.1424242), wk =   0.0026042
        k(  221) = (   0.1666667   0.3849002   0.0000000), wk =   0.0026042
        k(  222) = (   0.1666667   0.3849002   0.0356061), wk =   0.0026042
        k(  223) = (   0.1666667   0.3849002   0.0712121), wk =   0.0026042
        k(  224) = (   0.1666667   0.3849002   0.1068182), wk =   0.0026042
        k(  225) = (   0.1666667   0.3849002  -0.1424242), wk =   0.0026042
        k(  226) = (   0.1666667   0.4330127   0.0000000), wk =   0.0026042
        k(  227) = (   0.1666667   0.4330127   0.0356061), wk =   0.0026042
        k(  228) = (   0.1666667   0.4330127   0.0712121), wk =   0.0026042
        k(  229) = (   0.1666667   0.4330127   0.1068182), wk =   0.0026042
        k(  230) = (   0.1666667   0.4330127  -0.1424242), wk =   0.0026042
        k(  231) = (   0.1666667   0.4811252   0.0000000), wk =   0.0026042
        k(  232) = (   0.1666667   0.4811252   0.0356061), wk =   0.0026042
        k(  233) = (   0.1666667   0.4811252   0.0712121), wk =   0.0026042
        k(  234) = (   0.1666667   0.4811252   0.1068182), wk =   0.0026042
        k(  235) = (   0.1666667   0.4811252  -0.1424242), wk =   0.0026042
        k(  236) = (   0.1666667   0.5292377   0.0000000), wk =   0.0026042
        k(  237) = (   0.1666667   0.5292377   0.0356061), wk =   0.0026042
        k(  238) = (   0.1666667   0.5292377   0.0712121), wk =   0.0026042
        k(  239) = (   0.1666667   0.5292377   0.1068182), wk =   0.0026042
        k(  240) = (   0.1666667   0.5292377  -0.1424242), wk =   0.0026042
        k(  241) = (   0.1666667   0.5773503   0.0000000), wk =   0.0013021
        k(  242) = (   0.1666667   0.5773503   0.0356061), wk =   0.0026042
        k(  243) = (   0.1666667   0.5773503   0.0712121), wk =   0.0026042
        k(  244) = (   0.1666667   0.5773503   0.1068182), wk =   0.0026042
        k(  245) = (   0.1666667   0.5773503  -0.1424242), wk =   0.0013021
        k(  246) = (   0.2083333   0.3608439   0.0000000), wk =   0.0013021
        k(  247) = (   0.2083333   0.3608439   0.0356061), wk =   0.0026042
        k(  248) = (   0.2083333   0.3608439   0.0712121), wk =   0.0026042
        k(  249) = (   0.2083333   0.3608439   0.1068182), wk =   0.0026042
        k(  250) = (   0.2083333   0.3608439  -0.1424242), wk =   0.0013021
        k(  251) = (   0.2083333   0.4089564   0.0000000), wk =   0.0026042
        k(  252) = (   0.2083333   0.4089564   0.0356061), wk =   0.0026042
        k(  253) = (   0.2083333   0.4089564   0.0712121), wk =   0.0026042
        k(  254) = (   0.2083333   0.4089564   0.1068182), wk =   0.0026042
        k(  255) = (   0.2083333   0.4089564  -0.1424242), wk =   0.0026042
        k(  256) = (   0.2083333   0.4570690   0.0000000), wk =   0.0026042
        k(  257) = (   0.2083333   0.4570690   0.0356061), wk =   0.0026042
        k(  258) = (   0.2083333   0.4570690   0.0712121), wk =   0.0026042
        k(  259) = (   0.2083333   0.4570690   0.1068182), wk =   0.0026042
        k(  260) = (   0.2083333   0.4570690  -0.1424242), wk =   0.0026042
        k(  261) = (   0.2083333   0.5051815   0.0000000), wk =   0.0026042
        k(  262) = (   0.2083333   0.5051815   0.0356061), wk =   0.0026042
        k(  263) = (   0.2083333   0.5051815   0.0712121), wk =   0.0026042
        k(  264) = (   0.2083333   0.5051815   0.1068182), wk =   0.0026042
        k(  265) = (   0.2083333   0.5051815  -0.1424242), wk =   0.0026042
        k(  266) = (   0.2083333   0.5532940   0.0000000), wk =   0.0026042
        k(  267) = (   0.2083333   0.5532940   0.0356061), wk =   0.0026042
        k(  268) = (   0.2083333   0.5532940   0.0712121), wk =   0.0026042
        k(  269) = (   0.2083333   0.5532940   0.1068182), wk =   0.0026042
        k(  270) = (   0.2083333   0.5532940  -0.1424242), wk =   0.0026042
        k(  271) = (   0.2500000   0.4330127   0.0000000), wk =   0.0013021
        k(  272) = (   0.2500000   0.4330127   0.0356061), wk =   0.0026042
        k(  273) = (   0.2500000   0.4330127   0.0712121), wk =   0.0026042
        k(  274) = (   0.2500000   0.4330127   0.1068182), wk =   0.0026042
        k(  275) = (   0.2500000   0.4330127  -0.1424242), wk =   0.0013021
        k(  276) = (   0.2500000   0.4811252   0.0000000), wk =   0.0026042
        k(  277) = (   0.2500000   0.4811252   0.0356061), wk =   0.0026042
        k(  278) = (   0.2500000   0.4811252   0.0712121), wk =   0.0026042
        k(  279) = (   0.2500000   0.4811252   0.1068182), wk =   0.0026042
        k(  280) = (   0.2500000   0.4811252  -0.1424242), wk =   0.0026042
        k(  281) = (   0.2500000   0.5292377   0.0000000), wk =   0.0026042
        k(  282) = (   0.2500000   0.5292377   0.0356061), wk =   0.0026042
        k(  283) = (   0.2500000   0.5292377   0.0712121), wk =   0.0026042
        k(  284) = (   0.2500000   0.5292377   0.1068182), wk =   0.0026042
        k(  285) = (   0.2500000   0.5292377  -0.1424242), wk =   0.0026042
        k(  286) = (   0.2500000   0.5773503   0.0000000), wk =   0.0013021
        k(  287) = (   0.2500000   0.5773503   0.0356061), wk =   0.0026042
        k(  288) = (   0.2500000   0.5773503   0.0712121), wk =   0.0026042
        k(  289) = (   0.2500000   0.5773503   0.1068182), wk =   0.0026042
        k(  290) = (   0.2500000   0.5773503  -0.1424242), wk =   0.0013021
        k(  291) = (   0.2916667   0.5051815   0.0000000), wk =   0.0013021
        k(  292) = (   0.2916667   0.5051815   0.0356061), wk =   0.0026042
        k(  293) = (   0.2916667   0.5051815   0.0712121), wk =   0.0026042
        k(  294) = (   0.2916667   0.5051815   0.1068182), wk =   0.0026042
        k(  295) = (   0.2916667   0.5051815  -0.1424242), wk =   0.0013021
        k(  296) = (   0.2916667   0.5532940   0.0000000), wk =   0.0026042
        k(  297) = (   0.2916667   0.5532940   0.0356061), wk =   0.0026042
        k(  298) = (   0.2916667   0.5532940   0.0712121), wk =   0.0026042
        k(  299) = (   0.2916667   0.5532940   0.1068182), wk =   0.0026042
        k(  300) = (   0.2916667   0.5532940  -0.1424242), wk =   0.0026042
        k(  301) = (   0.3333333   0.5773503   0.0000000), wk =   0.0004340
        k(  302) = (   0.3333333   0.5773503   0.0356061), wk =   0.0008681
        k(  303) = (   0.3333333   0.5773503   0.0712121), wk =   0.0008681
        k(  304) = (   0.3333333   0.5773503   0.1068182), wk =   0.0008681
        k(  305) = (   0.3333333   0.5773503  -0.1424242), wk =   0.0004340
        k(  306) = (   0.0000000  -0.0481125   0.0356061), wk =   0.0013021
        k(  307) = (   0.0000000  -0.0481125   0.0712121), wk =   0.0013021
        k(  308) = (   0.0000000  -0.0481125   0.1068182), wk =   0.0013021
        k(  309) = (   0.0000000  -0.0962250   0.0356061), wk =   0.0013021
        k(  310) = (   0.0000000  -0.0962250   0.0712121), wk =   0.0013021
        k(  311) = (   0.0000000  -0.0962250   0.1068182), wk =   0.0013021
        k(  312) = (   0.0000000  -0.1443376   0.0356061), wk =   0.0013021
        k(  313) = (   0.0000000  -0.1443376   0.0712121), wk =   0.0013021
        k(  314) = (   0.0000000  -0.1443376   0.1068182), wk =   0.0013021
        k(  315) = (   0.0000000  -0.1924501   0.0356061), wk =   0.0013021
        k(  316) = (   0.0000000  -0.1924501   0.0712121), wk =   0.0013021
        k(  317) = (   0.0000000  -0.1924501   0.1068182), wk =   0.0013021
        k(  318) = (   0.0000000  -0.2405626   0.0356061), wk =   0.0013021
        k(  319) = (   0.0000000  -0.2405626   0.0712121), wk =   0.0013021
        k(  320) = (   0.0000000  -0.2405626   0.1068182), wk =   0.0013021
        k(  321) = (   0.0000000  -0.2886751   0.0356061), wk =   0.0013021
        k(  322) = (   0.0000000  -0.2886751   0.0712121), wk =   0.0013021
        k(  323) = (   0.0000000  -0.2886751   0.1068182), wk =   0.0013021
        k(  324) = (   0.0000000  -0.3367877   0.0356061), wk =   0.0013021
        k(  325) = (   0.0000000  -0.3367877   0.0712121), wk =   0.0013021
        k(  326) = (   0.0000000  -0.3367877   0.1068182), wk =   0.0013021
        k(  327) = (   0.0000000  -0.3849002   0.0356061), wk =   0.0013021
        k(  328) = (   0.0000000  -0.3849002   0.0712121), wk =   0.0013021
        k(  329) = (   0.0000000  -0.3849002   0.1068182), wk =   0.0013021
        k(  330) = (   0.0000000  -0.4330127   0.0356061), wk =   0.0013021
        k(  331) = (   0.0000000  -0.4330127   0.0712121), wk =   0.0013021
        k(  332) = (   0.0000000  -0.4330127   0.1068182), wk =   0.0013021
        k(  333) = (   0.0000000  -0.4811252   0.0356061), wk =   0.0013021
        k(  334) = (   0.0000000  -0.4811252   0.0712121), wk =   0.0013021
        k(  335) = (   0.0000000  -0.4811252   0.1068182), wk =   0.0013021
        k(  336) = (   0.0000000  -0.5292377   0.0356061), wk =   0.0013021
        k(  337) = (   0.0000000  -0.5292377   0.0712121), wk =   0.0013021
        k(  338) = (   0.0000000  -0.5292377   0.1068182), wk =   0.0013021
        k(  339) = (  -0.0416667  -0.1202813   0.0356061), wk =   0.0026042
        k(  340) = (  -0.0416667  -0.1202813   0.0712121), wk =   0.0026042
        k(  341) = (  -0.0416667  -0.1202813   0.1068182), wk =   0.0026042
        k(  342) = (  -0.0416667  -0.1683938   0.0356061), wk =   0.0026042
        k(  343) = (  -0.0416667  -0.1683938   0.0712121), wk =   0.0026042
        k(  344) = (  -0.0416667  -0.1683938   0.1068182), wk =   0.0026042
        k(  345) = (  -0.0416667  -0.2165064   0.0356061), wk =   0.0026042
        k(  346) = (  -0.0416667  -0.2165064   0.0712121), wk =   0.0026042
        k(  347) = (  -0.0416667  -0.2165064   0.1068182), wk =   0.0026042
        k(  348) = (  -0.0416667  -0.2646189   0.0356061), wk =   0.0026042
        k(  349) = (  -0.0416667  -0.2646189   0.0712121), wk =   0.0026042
        k(  350) = (  -0.0416667  -0.2646189   0.1068182), wk =   0.0026042
        k(  351) = (  -0.0416667  -0.3127314   0.0356061), wk =   0.0026042
        k(  352) = (  -0.0416667  -0.3127314   0.0712121), wk =   0.0026042
        k(  353) = (  -0.0416667  -0.3127314   0.1068182), wk =   0.0026042
        k(  354) = (  -0.0416667  -0.3608439   0.0356061), wk =   0.0026042
        k(  355) = (  -0.0416667  -0.3608439   0.0712121), wk =   0.0026042
        k(  356) = (  -0.0416667  -0.3608439   0.1068182), wk =   0.0026042
        k(  357) = (  -0.0416667  -0.4089564   0.0356061), wk =   0.0026042
        k(  358) = (  -0.0416667  -0.4089564   0.0712121), wk =   0.0026042
        k(  359) = (  -0.0416667  -0.4089564   0.1068182), wk =   0.0026042
        k(  360) = (  -0.0416667  -0.4570690   0.0356061), wk =   0.0026042
        k(  361) = (  -0.0416667  -0.4570690   0.0712121), wk =   0.0026042
        k(  362) = (  -0.0416667  -0.4570690   0.1068182), wk =   0.0026042
        k(  363) = (  -0.0416667  -0.5051815   0.0356061), wk =   0.0026042
        k(  364) = (  -0.0416667  -0.5051815   0.0712121), wk =   0.0026042
        k(  365) = (  -0.0416667  -0.5051815   0.1068182), wk =   0.0026042
        k(  366) = (  -0.0416667  -0.5532940   0.0356061), wk =   0.0026042
        k(  367) = (  -0.0416667  -0.5532940   0.0712121), wk =   0.0026042
        k(  368) = (  -0.0416667  -0.5532940   0.1068182), wk =   0.0026042
        k(  369) = (  -0.0833333  -0.1924501   0.0356061), wk =   0.0026042
        k(  370) = (  -0.0833333  -0.1924501   0.0712121), wk =   0.0026042
        k(  371) = (  -0.0833333  -0.1924501   0.1068182), wk =   0.0026042
        k(  372) = (  -0.0833333  -0.2405626   0.0356061), wk =   0.0026042
        k(  373) = (  -0.0833333  -0.2405626   0.0712121), wk =   0.0026042
        k(  374) = (  -0.0833333  -0.2405626   0.1068182), wk =   0.0026042
        k(  375) = (  -0.0833333  -0.2886751   0.0356061), wk =   0.0026042
        k(  376) = (  -0.0833333  -0.2886751   0.0712121), wk =   0.0026042
        k(  377) = (  -0.0833333  -0.2886751   0.1068182), wk =   0.0026042
        k(  378) = (  -0.0833333  -0.3367877   0.0356061), wk =   0.0026042
        k(  379) = (  -0.0833333  -0.3367877   0.0712121), wk =   0.0026042
        k(  380) = (  -0.0833333  -0.3367877   0.1068182), wk =   0.0026042
        k(  381) = (  -0.0833333  -0.3849002   0.0356061), wk =   0.0026042
        k(  382) = (  -0.0833333  -0.3849002   0.0712121), wk =   0.0026042
        k(  383) = (  -0.0833333  -0.3849002   0.1068182), wk =   0.0026042
        k(  384) = (  -0.0833333  -0.4330127   0.0356061), wk =   0.0026042
        k(  385) = (  -0.0833333  -0.4330127   0.0712121), wk =   0.0026042
        k(  386) = (  -0.0833333  -0.4330127   0.1068182), wk =   0.0026042
        k(  387) = (  -0.0833333  -0.4811252   0.0356061), wk =   0.0026042
        k(  388) = (  -0.0833333  -0.4811252   0.0712121), wk =   0.0026042
        k(  389) = (  -0.0833333  -0.4811252   0.1068182), wk =   0.0026042
        k(  390) = (  -0.0833333  -0.5292377   0.0356061), wk =   0.0026042
        k(  391) = (  -0.0833333  -0.5292377   0.0712121), wk =   0.0026042
        k(  392) = (  -0.0833333  -0.5292377   0.1068182), wk =   0.0026042
        k(  393) = (  -0.1250000  -0.2646189   0.0356061), wk =   0.0026042
        k(  394) = (  -0.1250000  -0.2646189   0.0712121), wk =   0.0026042
        k(  395) = (  -0.1250000  -0.2646189   0.1068182), wk =   0.0026042
        k(  396) = (  -0.1250000  -0.3127314   0.0356061), wk =   0.0026042
        k(  397) = (  -0.1250000  -0.3127314   0.0712121), wk =   0.0026042
        k(  398) = (  -0.1250000  -0.3127314   0.1068182), wk =   0.0026042
        k(  399) = (  -0.1250000  -0.3608439   0.0356061), wk =   0.0026042
        k(  400) = (  -0.1250000  -0.3608439   0.0712121), wk =   0.0026042
        k(  401) = (  -0.1250000  -0.3608439   0.1068182), wk =   0.0026042
        k(  402) = (  -0.1250000  -0.4089564   0.0356061), wk =   0.0026042
        k(  403) = (  -0.1250000  -0.4089564   0.0712121), wk =   0.0026042
        k(  404) = (  -0.1250000  -0.4089564   0.1068182), wk =   0.0026042
        k(  405) = (  -0.1250000  -0.4570690   0.0356061), wk =   0.0026042
        k(  406) = (  -0.1250000  -0.4570690   0.0712121), wk =   0.0026042
        k(  407) = (  -0.1250000  -0.4570690   0.1068182), wk =   0.0026042
        k(  408) = (  -0.1250000  -0.5051815   0.0356061), wk =   0.0026042
        k(  409) = (  -0.1250000  -0.5051815   0.0712121), wk =   0.0026042
        k(  410) = (  -0.1250000  -0.5051815   0.1068182), wk =   0.0026042
        k(  411) = (  -0.1250000  -0.5532940   0.0356061), wk =   0.0026042
        k(  412) = (  -0.1250000  -0.5532940   0.0712121), wk =   0.0026042
        k(  413) = (  -0.1250000  -0.5532940   0.1068182), wk =   0.0026042
        k(  414) = (  -0.1666667  -0.3367877   0.0356061), wk =   0.0026042
        k(  415) = (  -0.1666667  -0.3367877   0.0712121), wk =   0.0026042
        k(  416) = (  -0.1666667  -0.3367877   0.1068182), wk =   0.0026042
        k(  417) = (  -0.1666667  -0.3849002   0.0356061), wk =   0.0026042
        k(  418) = (  -0.1666667  -0.3849002   0.0712121), wk =   0.0026042
        k(  419) = (  -0.1666667  -0.3849002   0.1068182), wk =   0.0026042
        k(  420) = (  -0.1666667  -0.4330127   0.0356061), wk =   0.0026042
        k(  421) = (  -0.1666667  -0.4330127   0.0712121), wk =   0.0026042
        k(  422) = (  -0.1666667  -0.4330127   0.1068182), wk =   0.0026042
        k(  423) = (  -0.1666667  -0.4811252   0.0356061), wk =   0.0026042
        k(  424) = (  -0.1666667  -0.4811252   0.0712121), wk =   0.0026042
        k(  425) = (  -0.1666667  -0.4811252   0.1068182), wk =   0.0026042
        k(  426) = (  -0.1666667  -0.5292377   0.0356061), wk =   0.0026042
        k(  427) = (  -0.1666667  -0.5292377   0.0712121), wk =   0.0026042
        k(  428) = (  -0.1666667  -0.5292377   0.1068182), wk =   0.0026042
        k(  429) = (  -0.2083333  -0.4089564   0.0356061), wk =   0.0026042
        k(  430) = (  -0.2083333  -0.4089564   0.0712121), wk =   0.0026042
        k(  431) = (  -0.2083333  -0.4089564   0.1068182), wk =   0.0026042
        k(  432) = (  -0.2083333  -0.4570690   0.0356061), wk =   0.0026042
        k(  433) = (  -0.2083333  -0.4570690   0.0712121), wk =   0.0026042
        k(  434) = (  -0.2083333  -0.4570690   0.1068182), wk =   0.0026042
        k(  435) = (  -0.2083333  -0.5051815   0.0356061), wk =   0.0026042
        k(  436) = (  -0.2083333  -0.5051815   0.0712121), wk =   0.0026042
        k(  437) = (  -0.2083333  -0.5051815   0.1068182), wk =   0.0026042
        k(  438) = (  -0.2083333  -0.5532940   0.0356061), wk =   0.0026042
        k(  439) = (  -0.2083333  -0.5532940   0.0712121), wk =   0.0026042
        k(  440) = (  -0.2083333  -0.5532940   0.1068182), wk =   0.0026042
        k(  441) = (  -0.2500000  -0.4811252   0.0356061), wk =   0.0026042
        k(  442) = (  -0.2500000  -0.4811252   0.0712121), wk =   0.0026042
        k(  443) = (  -0.2500000  -0.4811252   0.1068182), wk =   0.0026042
        k(  444) = (  -0.2500000  -0.5292377   0.0356061), wk =   0.0026042
        k(  445) = (  -0.2500000  -0.5292377   0.0712121), wk =   0.0026042
        k(  446) = (  -0.2500000  -0.5292377   0.1068182), wk =   0.0026042
        k(  447) = (  -0.2916667  -0.5532940   0.0356061), wk =   0.0026042
        k(  448) = (  -0.2916667  -0.5532940   0.0712121), wk =   0.0026042
        k(  449) = (  -0.2916667  -0.5532940   0.1068182), wk =   0.0026042

                       cryst. coord.
        k(    1) = (   0.0000000   0.0000000   0.0000000), wk =   0.0002170
        k(    2) = (   0.0000000   0.0000000   0.1250000), wk =   0.0004340
        k(    3) = (   0.0000000   0.0000000   0.2500000), wk =   0.0004340
        k(    4) = (   0.0000000   0.0000000   0.3750000), wk =   0.0004340
        k(    5) = (   0.0000000   0.0000000  -0.5000000), wk =   0.0002170
        k(    6) = (   0.0000000   0.0416667   0.0000000), wk =   0.0013021
        k(    7) = (   0.0000000   0.0416667   0.1250000), wk =   0.0013021
        k(    8) = (   0.0000000   0.0416667   0.2500000), wk =   0.0013021
        k(    9) = (   0.0000000   0.0416667   0.3750000), wk =   0.0013021
        k(   10) = (   0.0000000   0.0416667  -0.5000000), wk =   0.0013021
        k(   11) = (   0.0000000   0.0833333   0.0000000), wk =   0.0013021
        k(   12) = (   0.0000000   0.0833333   0.1250000), wk =   0.0013021
        k(   13) = (   0.0000000   0.0833333   0.2500000), wk =   0.0013021
        k(   14) = (   0.0000000   0.0833333   0.3750000), wk =   0.0013021
        k(   15) = (   0.0000000   0.0833333  -0.5000000), wk =   0.0013021
        k(   16) = (   0.0000000   0.1250000   0.0000000), wk =   0.0013021
        k(   17) = (   0.0000000   0.1250000   0.1250000), wk =   0.0013021
        k(   18) = (   0.0000000   0.1250000   0.2500000), wk =   0.0013021
        k(   19) = (   0.0000000   0.1250000   0.3750000), wk =   0.0013021
        k(   20) = (   0.0000000   0.1250000  -0.5000000), wk =   0.0013021
        k(   21) = (   0.0000000   0.1666667   0.0000000), wk =   0.0013021
        k(   22) = (   0.0000000   0.1666667   0.1250000), wk =   0.0013021
        k(   23) = (   0.0000000   0.1666667   0.2500000), wk =   0.0013021
        k(   24) = (   0.0000000   0.1666667   0.3750000), wk =   0.0013021
        k(   25) = (   0.0000000   0.1666667  -0.5000000), wk =   0.0013021
        k(   26) = (   0.0000000   0.2083333   0.0000000), wk =   0.0013021
        k(   27) = (   0.0000000   0.2083333   0.1250000), wk =   0.0013021
        k(   28) = (   0.0000000   0.2083333   0.2500000), wk =   0.0013021
        k(   29) = (   0.0000000   0.2083333   0.3750000), wk =   0.0013021
        k(   30) = (   0.0000000   0.2083333  -0.5000000), wk =   0.0013021
        k(   31) = (   0.0000000   0.2500000   0.0000000), wk =   0.0013021
        k(   32) = (   0.0000000   0.2500000   0.1250000), wk =   0.0013021
        k(   33) = (   0.0000000   0.2500000   0.2500000), wk =   0.0013021
        k(   34) = (   0.0000000   0.2500000   0.3750000), wk =   0.0013021
        k(   35) = (   0.0000000   0.2500000  -0.5000000), wk =   0.0013021
        k(   36) = (   0.0000000   0.2916667   0.0000000), wk =   0.0013021
        k(   37) = (   0.0000000   0.2916667   0.1250000), wk =   0.0013021
        k(   38) = (   0.0000000   0.2916667   0.2500000), wk =   0.0013021
        k(   39) = (   0.0000000   0.2916667   0.3750000), wk =   0.0013021
        k(   40) = (   0.0000000   0.2916667  -0.5000000), wk =   0.0013021
        k(   41) = (   0.0000000   0.3333333   0.0000000), wk =   0.0013021
        k(   42) = (   0.0000000   0.3333333   0.1250000), wk =   0.0013021
        k(   43) = (   0.0000000   0.3333333   0.2500000), wk =   0.0013021
        k(   44) = (   0.0000000   0.3333333   0.3750000), wk =   0.0013021
        k(   45) = (   0.0000000   0.3333333  -0.5000000), wk =   0.0013021
        k(   46) = (   0.0000000   0.3750000   0.0000000), wk =   0.0013021
        k(   47) = (   0.0000000   0.3750000   0.1250000), wk =   0.0013021
        k(   48) = (   0.0000000   0.3750000   0.2500000), wk =   0.0013021
        k(   49) = (   0.0000000   0.3750000   0.3750000), wk =   0.0013021
        k(   50) = (   0.0000000   0.3750000  -0.5000000), wk =   0.0013021
        k(   51) = (   0.0000000   0.4166667   0.0000000), wk =   0.0013021
        k(   52) = (   0.0000000   0.4166667   0.1250000), wk =   0.0013021
        k(   53) = (   0.0000000   0.4166667   0.2500000), wk =   0.0013021
        k(   54) = (   0.0000000   0.4166667   0.3750000), wk =   0.0013021
        k(   55) = (   0.0000000   0.4166667  -0.5000000), wk =   0.0013021
        k(   56) = (   0.0000000   0.4583333   0.0000000), wk =   0.0013021
        k(   57) = (   0.0000000   0.4583333   0.1250000), wk =   0.0013021
        k(   58) = (   0.0000000   0.4583333   0.2500000), wk =   0.0013021
        k(   59) = (   0.0000000   0.4583333   0.3750000), wk =   0.0013021
        k(   60) = (   0.0000000   0.4583333  -0.5000000), wk =   0.0013021
        k(   61) = (   0.0000000  -0.5000000   0.0000000), wk =   0.0006510
        k(   62) = (   0.0000000  -0.5000000   0.1250000), wk =   0.0013021
        k(   63) = (   0.0000000  -0.5000000   0.2500000), wk =   0.0013021
        k(   64) = (   0.0000000  -0.5000000   0.3750000), wk =   0.0013021
        k(   65) = (   0.0000000  -0.5000000  -0.5000000), wk =   0.0006510
        k(   66) = (   0.0416667   0.0416667   0.0000000), wk =   0.0013021
        k(   67) = (   0.0416667   0.0416667   0.1250000), wk =   0.0026042
        k(   68) = (   0.0416667   0.0416667   0.2500000), wk =   0.0026042
        k(   69) = (   0.0416667   0.0416667   0.3750000), wk =   0.0026042
        k(   70) = (   0.0416667   0.0416667  -0.5000000), wk =   0.0013021
        k(   71) = (   0.0416667   0.0833333   0.0000000), wk =   0.0026042
        k(   72) = (   0.0416667   0.0833333   0.1250000), wk =   0.0026042
        k(   73) = (   0.0416667   0.0833333   0.2500000), wk =   0.0026042
        k(   74) = (   0.0416667   0.0833333   0.3750000), wk =   0.0026042
        k(   75) = (   0.0416667   0.0833333  -0.5000000), wk =   0.0026042
        k(   76) = (   0.0416667   0.1250000   0.0000000), wk =   0.0026042
        k(   77) = (   0.0416667   0.1250000   0.1250000), wk =   0.0026042
        k(   78) = (   0.0416667   0.1250000   0.2500000), wk =   0.0026042
        k(   79) = (   0.0416667   0.1250000   0.3750000), wk =   0.0026042
        k(   80) = (   0.0416667   0.1250000  -0.5000000), wk =   0.0026042
        k(   81) = (   0.0416667   0.1666667   0.0000000), wk =   0.0026042
        k(   82) = (   0.0416667   0.1666667   0.1250000), wk =   0.0026042
        k(   83) = (   0.0416667   0.1666667   0.2500000), wk =   0.0026042
        k(   84) = (   0.0416667   0.1666667   0.3750000), wk =   0.0026042
        k(   85) = (   0.0416667   0.1666667  -0.5000000), wk =   0.0026042
        k(   86) = (   0.0416667   0.2083333   0.0000000), wk =   0.0026042
        k(   87) = (   0.0416667   0.2083333   0.1250000), wk =   0.0026042
        k(   88) = (   0.0416667   0.2083333   0.2500000), wk =   0.0026042
        k(   89) = (   0.0416667   0.2083333   0.3750000), wk =   0.0026042
        k(   90) = (   0.0416667   0.2083333  -0.5000000), wk =   0.0026042
        k(   91) = (   0.0416667   0.2500000   0.0000000), wk =   0.0026042
        k(   92) = (   0.0416667   0.2500000   0.1250000), wk =   0.0026042
        k(   93) = (   0.0416667   0.2500000   0.2500000), wk =   0.0026042
        k(   94) = (   0.0416667   0.2500000   0.3750000), wk =   0.0026042
        k(   95) = (   0.0416667   0.2500000  -0.5000000), wk =   0.0026042
        k(   96) = (   0.0416667   0.2916667   0.0000000), wk =   0.0026042
        k(   97) = (   0.0416667   0.2916667   0.1250000), wk =   0.0026042
        k(   98) = (   0.0416667   0.2916667   0.2500000), wk =   0.0026042
        k(   99) = (   0.0416667   0.2916667   0.3750000), wk =   0.0026042
        k(  100) = (   0.0416667   0.2916667  -0.5000000), wk =   0.0026042
        k(  101) = (   0.0416667   0.3333333   0.0000000), wk =   0.0026042
        k(  102) = (   0.0416667   0.3333333   0.1250000), wk =   0.0026042
        k(  103) = (   0.0416667   0.3333333   0.2500000), wk =   0.0026042
        k(  104) = (   0.0416667   0.3333333   0.3750000), wk =   0.0026042
        k(  105) = (   0.0416667   0.3333333  -0.5000000), wk =   0.0026042
        k(  106) = (   0.0416667   0.3750000   0.0000000), wk =   0.0026042
        k(  107) = (   0.0416667   0.3750000   0.1250000), wk =   0.0026042
        k(  108) = (   0.0416667   0.3750000   0.2500000), wk =   0.0026042
        k(  109) = (   0.0416667   0.3750000   0.3750000), wk =   0.0026042
        k(  110) = (   0.0416667   0.3750000  -0.5000000), wk =   0.0026042
        k(  111) = (   0.0416667   0.4166667   0.0000000), wk =   0.0026042
        k(  112) = (   0.0416667   0.4166667   0.1250000), wk =   0.0026042
        k(  113) = (   0.0416667   0.4166667   0.2500000), wk =   0.0026042
        k(  114) = (   0.0416667   0.4166667   0.3750000), wk =   0.0026042
        k(  115) = (   0.0416667   0.4166667  -0.5000000), wk =   0.0026042
        k(  116) = (   0.0416667   0.4583333   0.0000000), wk =   0.0026042
        k(  117) = (   0.0416667   0.4583333   0.1250000), wk =   0.0026042
        k(  118) = (   0.0416667   0.4583333   0.2500000), wk =   0.0026042
        k(  119) = (   0.0416667   0.4583333   0.3750000), wk =   0.0026042
        k(  120) = (   0.0416667   0.4583333  -0.5000000), wk =   0.0026042
        k(  121) = (   0.0833333   0.0833333   0.0000000), wk =   0.0013021
        k(  122) = (   0.0833333   0.0833333   0.1250000), wk =   0.0026042
        k(  123) = (   0.0833333   0.0833333   0.2500000), wk =   0.0026042
        k(  124) = (   0.0833333   0.0833333   0.3750000), wk =   0.0026042
        k(  125) = (   0.0833333   0.0833333  -0.5000000), wk =   0.0013021
        k(  126) = (   0.0833333   0.1250000   0.0000000), wk =   0.0026042
        k(  127) = (   0.0833333   0.1250000   0.1250000), wk =   0.0026042
        k(  128) = (   0.0833333   0.1250000   0.2500000), wk =   0.0026042
        k(  129) = (   0.0833333   0.1250000   0.3750000), wk =   0.0026042
        k(  130) = (   0.0833333   0.1250000  -0.5000000), wk =   0.0026042
        k(  131) = (   0.0833333   0.1666667   0.0000000), wk =   0.0026042
        k(  132) = (   0.0833333   0.1666667   0.1250000), wk =   0.0026042
        k(  133) = (   0.0833333   0.1666667   0.2500000), wk =   0.0026042
        k(  134) = (   0.0833333   0.1666667   0.3750000), wk =   0.0026042
        k(  135) = (   0.0833333   0.1666667  -0.5000000), wk =   0.0026042
        k(  136) = (   0.0833333   0.2083333   0.0000000), wk =   0.0026042
        k(  137) = (   0.0833333   0.2083333   0.1250000), wk =   0.0026042
        k(  138) = (   0.0833333   0.2083333   0.2500000), wk =   0.0026042
        k(  139) = (   0.0833333   0.2083333   0.3750000), wk =   0.0026042
        k(  140) = (   0.0833333   0.2083333  -0.5000000), wk =   0.0026042
        k(  141) = (   0.0833333   0.2500000   0.0000000), wk =   0.0026042
        k(  142) = (   0.0833333   0.2500000   0.1250000), wk =   0.0026042
        k(  143) = (   0.0833333   0.2500000   0.2500000), wk =   0.0026042
        k(  144) = (   0.0833333   0.2500000   0.3750000), wk =   0.0026042
        k(  145) = (   0.0833333   0.2500000  -0.5000000), wk =   0.0026042
        k(  146) = (   0.0833333   0.2916667   0.0000000), wk =   0.0026042
        k(  147) = (   0.0833333   0.2916667   0.1250000), wk =   0.0026042
        k(  148) = (   0.0833333   0.2916667   0.2500000), wk =   0.0026042
        k(  149) = (   0.0833333   0.2916667   0.3750000), wk =   0.0026042
        k(  150) = (   0.0833333   0.2916667  -0.5000000), wk =   0.0026042
        k(  151) = (   0.0833333   0.3333333   0.0000000), wk =   0.0026042
        k(  152) = (   0.0833333   0.3333333   0.1250000), wk =   0.0026042
        k(  153) = (   0.0833333   0.3333333   0.2500000), wk =   0.0026042
        k(  154) = (   0.0833333   0.3333333   0.3750000), wk =   0.0026042
        k(  155) = (   0.0833333   0.3333333  -0.5000000), wk =   0.0026042
        k(  156) = (   0.0833333   0.3750000   0.0000000), wk =   0.0026042
        k(  157) = (   0.0833333   0.3750000   0.1250000), wk =   0.0026042
        k(  158) = (   0.0833333   0.3750000   0.2500000), wk =   0.0026042
        k(  159) = (   0.0833333   0.3750000   0.3750000), wk =   0.0026042
        k(  160) = (   0.0833333   0.3750000  -0.5000000), wk =   0.0026042
        k(  161) = (   0.0833333   0.4166667   0.0000000), wk =   0.0026042
        k(  162) = (   0.0833333   0.4166667   0.1250000), wk =   0.0026042
        k(  163) = (   0.0833333   0.4166667   0.2500000), wk =   0.0026042
        k(  164) = (   0.0833333   0.4166667   0.3750000), wk =   0.0026042
        k(  165) = (   0.0833333   0.4166667  -0.5000000), wk =   0.0026042
        k(  166) = (   0.0833333   0.4583333   0.0000000), wk =   0.0013021
        k(  167) = (   0.0833333   0.4583333   0.1250000), wk =   0.0026042
        k(  168) = (   0.0833333   0.4583333   0.2500000), wk =   0.0026042
        k(  169) = (   0.0833333   0.4583333   0.3750000), wk =   0.0026042
        k(  170) = (   0.0833333   0.4583333  -0.5000000), wk =   0.0013021
        k(  171) = (   0.1250000   0.1250000   0.0000000), wk =   0.0013021
        k(  172) = (   0.1250000   0.1250000   0.1250000), wk =   0.0026042
        k(  173) = (   0.1250000   0.1250000   0.2500000), wk =   0.0026042
        k(  174) = (   0.1250000   0.1250000   0.3750000), wk =   0.0026042
        k(  175) = (   0.1250000   0.1250000  -0.5000000), wk =   0.0013021
        k(  176) = (   0.1250000   0.1666667   0.0000000), wk =   0.0026042
        k(  177) = (   0.1250000   0.1666667   0.1250000), wk =   0.0026042
        k(  178) = (   0.1250000   0.1666667   0.2500000), wk =   0.0026042
        k(  179) = (   0.1250000   0.1666667   0.3750000), wk =   0.0026042
        k(  180) = (   0.1250000   0.1666667  -0.5000000), wk =   0.0026042
        k(  181) = (   0.1250000   0.2083333   0.0000000), wk =   0.0026042
        k(  182) = (   0.1250000   0.2083333   0.1250000), wk =   0.0026042
        k(  183) = (   0.1250000   0.2083333   0.2500000), wk =   0.0026042
        k(  184) = (   0.1250000   0.2083333   0.3750000), wk =   0.0026042
        k(  185) = (   0.1250000   0.2083333  -0.5000000), wk =   0.0026042
        k(  186) = (   0.1250000   0.2500000   0.0000000), wk =   0.0026042
        k(  187) = (   0.1250000   0.2500000   0.1250000), wk =   0.0026042
        k(  188) = (   0.1250000   0.2500000   0.2500000), wk =   0.0026042
        k(  189) = (   0.1250000   0.2500000   0.3750000), wk =   0.0026042
        k(  190) = (   0.1250000   0.2500000  -0.5000000), wk =   0.0026042
        k(  191) = (   0.1250000   0.2916667   0.0000000), wk =   0.0026042
        k(  192) = (   0.1250000   0.2916667   0.1250000), wk =   0.0026042
        k(  193) = (   0.1250000   0.2916667   0.2500000), wk =   0.0026042
        k(  194) = (   0.1250000   0.2916667   0.3750000), wk =   0.0026042
        k(  195) = (   0.1250000   0.2916667  -0.5000000), wk =   0.0026042
        k(  196) = (   0.1250000   0.3333333   0.0000000), wk =   0.0026042
        k(  197) = (   0.1250000   0.3333333   0.1250000), wk =   0.0026042
        k(  198) = (   0.1250000   0.3333333   0.2500000), wk =   0.0026042
        k(  199) = (   0.1250000   0.3333333   0.3750000), wk =   0.0026042
        k(  200) = (   0.1250000   0.3333333  -0.5000000), wk =   0.0026042
        k(  201) = (   0.1250000   0.3750000   0.0000000), wk =   0.0026042
        k(  202) = (   0.1250000   0.3750000   0.1250000), wk =   0.0026042
        k(  203) = (   0.1250000   0.3750000   0.2500000), wk =   0.0026042
        k(  204) = (   0.1250000   0.3750000   0.3750000), wk =   0.0026042
        k(  205) = (   0.1250000   0.3750000  -0.5000000), wk =   0.0026042
        k(  206) = (   0.1250000   0.4166667   0.0000000), wk =   0.0026042
        k(  207) = (   0.1250000   0.4166667   0.1250000), wk =   0.0026042
        k(  208) = (   0.1250000   0.4166667   0.2500000), wk =   0.0026042
        k(  209) = (   0.1250000   0.4166667   0.3750000), wk =   0.0026042
        k(  210) = (   0.1250000   0.4166667  -0.5000000), wk =   0.0026042
        k(  211) = (   0.1666667   0.1666667   0.0000000), wk =   0.0013021
        k(  212) = (   0.1666667   0.1666667   0.1250000), wk =   0.0026042
        k(  213) = (   0.1666667   0.1666667   0.2500000), wk =   0.0026042
        k(  214) = (   0.1666667   0.1666667   0.3750000), wk =   0.0026042
        k(  215) = (   0.1666667   0.1666667  -0.5000000), wk =   0.0013021
        k(  216) = (   0.1666667   0.2083333   0.0000000), wk =   0.0026042
        k(  217) = (   0.1666667   0.2083333   0.1250000), wk =   0.0026042
        k(  218) = (   0.1666667   0.2083333   0.2500000), wk =   0.0026042
        k(  219) = (   0.1666667   0.2083333   0.3750000), wk =   0.0026042
        k(  220) = (   0.1666667   0.2083333  -0.5000000), wk =   0.0026042
        k(  221) = (   0.1666667   0.2500000   0.0000000), wk =   0.0026042
        k(  222) = (   0.1666667   0.2500000   0.1250000), wk =   0.0026042
        k(  223) = (   0.1666667   0.2500000   0.2500000), wk =   0.0026042
        k(  224) = (   0.1666667   0.2500000   0.3750000), wk =   0.0026042
        k(  225) = (   0.1666667   0.2500000  -0.5000000), wk =   0.0026042
        k(  226) = (   0.1666667   0.2916667   0.0000000), wk =   0.0026042
        k(  227) = (   0.1666667   0.2916667   0.1250000), wk =   0.0026042
        k(  228) = (   0.1666667   0.2916667   0.2500000), wk =   0.0026042
        k(  229) = (   0.1666667   0.2916667   0.3750000), wk =   0.0026042
        k(  230) = (   0.1666667   0.2916667  -0.5000000), wk =   0.0026042
        k(  231) = (   0.1666667   0.3333333   0.0000000), wk =   0.0026042
        k(  232) = (   0.1666667   0.3333333   0.1250000), wk =   0.0026042
        k(  233) = (   0.1666667   0.3333333   0.2500000), wk =   0.0026042
        k(  234) = (   0.1666667   0.3333333   0.3750000), wk =   0.0026042
        k(  235) = (   0.1666667   0.3333333  -0.5000000), wk =   0.0026042
        k(  236) = (   0.1666667   0.3750000   0.0000000), wk =   0.0026042
        k(  237) = (   0.1666667   0.3750000   0.1250000), wk =   0.0026042
        k(  238) = (   0.1666667   0.3750000   0.2500000), wk =   0.0026042
        k(  239) = (   0.1666667   0.3750000   0.3750000), wk =   0.0026042
        k(  240) = (   0.1666667   0.3750000  -0.5000000), wk =   0.0026042
        k(  241) = (   0.1666667   0.4166667   0.0000000), wk =   0.0013021
        k(  242) = (   0.1666667   0.4166667   0.1250000), wk =   0.0026042
        k(  243) = (   0.1666667   0.4166667   0.2500000), wk =   0.0026042
        k(  244) = (   0.1666667   0.4166667   0.3750000), wk =   0.0026042
        k(  245) = (   0.1666667   0.4166667  -0.5000000), wk =   0.0013021
        k(  246) = (   0.2083333   0.2083333   0.0000000), wk =   0.0013021
        k(  247) = (   0.2083333   0.2083333   0.1250000), wk =   0.0026042
        k(  248) = (   0.2083333   0.2083333   0.2500000), wk =   0.0026042
        k(  249) = (   0.2083333   0.2083333   0.3750000), wk =   0.0026042
        k(  250) = (   0.2083333   0.2083333  -0.5000000), wk =   0.0013021
        k(  251) = (   0.2083333   0.2500000   0.0000000), wk =   0.0026042
        k(  252) = (   0.2083333   0.2500000   0.1250000), wk =   0.0026042
        k(  253) = (   0.2083333   0.2500000   0.2500000), wk =   0.0026042
        k(  254) = (   0.2083333   0.2500000   0.3750000), wk =   0.0026042
        k(  255) = (   0.2083333   0.2500000  -0.5000000), wk =   0.0026042
        k(  256) = (   0.2083333   0.2916667   0.0000000), wk =   0.0026042
        k(  257) = (   0.2083333   0.2916667   0.1250000), wk =   0.0026042
        k(  258) = (   0.2083333   0.2916667   0.2500000), wk =   0.0026042
        k(  259) = (   0.2083333   0.2916667   0.3750000), wk =   0.0026042
        k(  260) = (   0.2083333   0.2916667  -0.5000000), wk =   0.0026042
        k(  261) = (   0.2083333   0.3333333   0.0000000), wk =   0.0026042
        k(  262) = (   0.2083333   0.3333333   0.1250000), wk =   0.0026042
        k(  263) = (   0.2083333   0.3333333   0.2500000), wk =   0.0026042
        k(  264) = (   0.2083333   0.3333333   0.3750000), wk =   0.0026042
        k(  265) = (   0.2083333   0.3333333  -0.5000000), wk =   0.0026042
        k(  266) = (   0.2083333   0.3750000   0.0000000), wk =   0.0026042
        k(  267) = (   0.2083333   0.3750000   0.1250000), wk =   0.0026042
        k(  268) = (   0.2083333   0.3750000   0.2500000), wk =   0.0026042
        k(  269) = (   0.2083333   0.3750000   0.3750000), wk =   0.0026042
        k(  270) = (   0.2083333   0.3750000  -0.5000000), wk =   0.0026042
        k(  271) = (   0.2500000   0.2500000   0.0000000), wk =   0.0013021
        k(  272) = (   0.2500000   0.2500000   0.1250000), wk =   0.0026042
        k(  273) = (   0.2500000   0.2500000   0.2500000), wk =   0.0026042
        k(  274) = (   0.2500000   0.2500000   0.3750000), wk =   0.0026042
        k(  275) = (   0.2500000   0.2500000  -0.5000000), wk =   0.0013021
        k(  276) = (   0.2500000   0.2916667   0.0000000), wk =   0.0026042
        k(  277) = (   0.2500000   0.2916667   0.1250000), wk =   0.0026042
        k(  278) = (   0.2500000   0.2916667   0.2500000), wk =   0.0026042
        k(  279) = (   0.2500000   0.2916667   0.3750000), wk =   0.0026042
        k(  280) = (   0.2500000   0.2916667  -0.5000000), wk =   0.0026042
        k(  281) = (   0.2500000   0.3333333   0.0000000), wk =   0.0026042
        k(  282) = (   0.2500000   0.3333333   0.1250000), wk =   0.0026042
        k(  283) = (   0.2500000   0.3333333   0.2500000), wk =   0.0026042
        k(  284) = (   0.2500000   0.3333333   0.3750000), wk =   0.0026042
        k(  285) = (   0.2500000   0.3333333  -0.5000000), wk =   0.0026042
        k(  286) = (   0.2500000   0.3750000   0.0000000), wk =   0.0013021
        k(  287) = (   0.2500000   0.3750000   0.1250000), wk =   0.0026042
        k(  288) = (   0.2500000   0.3750000   0.2500000), wk =   0.0026042
        k(  289) = (   0.2500000   0.3750000   0.3750000), wk =   0.0026042
        k(  290) = (   0.2500000   0.3750000  -0.5000000), wk =   0.0013021
        k(  291) = (   0.2916667   0.2916667   0.0000000), wk =   0.0013021
        k(  292) = (   0.2916667   0.2916667   0.1250000), wk =   0.0026042
        k(  293) = (   0.2916667   0.2916667   0.2500000), wk =   0.0026042
        k(  294) = (   0.2916667   0.2916667   0.3750000), wk =   0.0026042
        k(  295) = (   0.2916667   0.2916667  -0.5000000), wk =   0.0013021
        k(  296) = (   0.2916667   0.3333333   0.0000000), wk =   0.0026042
        k(  297) = (   0.2916667   0.3333333   0.1250000), wk =   0.0026042
        k(  298) = (   0.2916667   0.3333333   0.2500000), wk =   0.0026042
        k(  299) = (   0.2916667   0.3333333   0.3750000), wk =   0.0026042
        k(  300) = (   0.2916667   0.3333333  -0.5000000), wk =   0.0026042
        k(  301) = (   0.3333333   0.3333333   0.0000000), wk =   0.0004340
        k(  302) = (   0.3333333   0.3333333   0.1250000), wk =   0.0008681
        k(  303) = (   0.3333333   0.3333333   0.2500000), wk =   0.0008681
        k(  304) = (   0.3333333   0.3333333   0.3750000), wk =   0.0008681
        k(  305) = (   0.3333333   0.3333333  -0.5000000), wk =   0.0004340
        k(  306) = (   0.0000000  -0.0416667   0.1250000), wk =   0.0013021
        k(  307) = (   0.0000000  -0.0416667   0.2500000), wk =   0.0013021
        k(  308) = (   0.0000000  -0.0416667   0.3750000), wk =   0.0013021
        k(  309) = (   0.0000000  -0.0833333   0.1250000), wk =   0.0013021
        k(  310) = (   0.0000000  -0.0833333   0.2500000), wk =   0.0013021
        k(  311) = (   0.0000000  -0.0833333   0.3750000), wk =   0.0013021
        k(  312) = (   0.0000000  -0.1250000   0.1250000), wk =   0.0013021
        k(  313) = (   0.0000000  -0.1250000   0.2500000), wk =   0.0013021
        k(  314) = (   0.0000000  -0.1250000   0.3750000), wk =   0.0013021
        k(  315) = (   0.0000000  -0.1666667   0.1250000), wk =   0.0013021
        k(  316) = (   0.0000000  -0.1666667   0.2500000), wk =   0.0013021
        k(  317) = (   0.0000000  -0.1666667   0.3750000), wk =   0.0013021
        k(  318) = (   0.0000000  -0.2083333   0.1250000), wk =   0.0013021
        k(  319) = (   0.0000000  -0.2083333   0.2500000), wk =   0.0013021
        k(  320) = (   0.0000000  -0.2083333   0.3750000), wk =   0.0013021
        k(  321) = (   0.0000000  -0.2500000   0.1250000), wk =   0.0013021
        k(  322) = (   0.0000000  -0.2500000   0.2500000), wk =   0.0013021
        k(  323) = (   0.0000000  -0.2500000   0.3750000), wk =   0.0013021
        k(  324) = (   0.0000000  -0.2916667   0.1250000), wk =   0.0013021
        k(  325) = (   0.0000000  -0.2916667   0.2500000), wk =   0.0013021
        k(  326) = (   0.0000000  -0.2916667   0.3750000), wk =   0.0013021
        k(  327) = (   0.0000000  -0.3333333   0.1250000), wk =   0.0013021
        k(  328) = (   0.0000000  -0.3333333   0.2500000), wk =   0.0013021
        k(  329) = (   0.0000000  -0.3333333   0.3750000), wk =   0.0013021
        k(  330) = (   0.0000000  -0.3750000   0.1250000), wk =   0.0013021
        k(  331) = (   0.0000000  -0.3750000   0.2500000), wk =   0.0013021
        k(  332) = (   0.0000000  -0.3750000   0.3750000), wk =   0.0013021
        k(  333) = (   0.0000000  -0.4166667   0.1250000), wk =   0.0013021
        k(  334) = (   0.0000000  -0.4166667   0.2500000), wk =   0.0013021
        k(  335) = (   0.0000000  -0.4166667   0.3750000), wk =   0.0013021
        k(  336) = (   0.0000000  -0.4583333   0.1250000), wk =   0.0013021
        k(  337) = (   0.0000000  -0.4583333   0.2500000), wk =   0.0013021
        k(  338) = (   0.0000000  -0.4583333   0.3750000), wk =   0.0013021
        k(  339) = (  -0.0416667  -0.0833333   0.1250000), wk =   0.0026042
        k(  340) = (  -0.0416667  -0.0833333   0.2500000), wk =   0.0026042
        k(  341) = (  -0.0416667  -0.0833333   0.3750000), wk =   0.0026042
        k(  342) = (  -0.0416667  -0.1250000   0.1250000), wk =   0.0026042
        k(  343) = (  -0.0416667  -0.1250000   0.2500000), wk =   0.0026042
        k(  344) = (  -0.0416667  -0.1250000   0.3750000), wk =   0.0026042
        k(  345) = (  -0.0416667  -0.1666667   0.1250000), wk =   0.0026042
        k(  346) = (  -0.0416667  -0.1666667   0.2500000), wk =   0.0026042
        k(  347) = (  -0.0416667  -0.1666667   0.3750000), wk =   0.0026042
        k(  348) = (  -0.0416667  -0.2083333   0.1250000), wk =   0.0026042
        k(  349) = (  -0.0416667  -0.2083333   0.2500000), wk =   0.0026042
        k(  350) = (  -0.0416667  -0.2083333   0.3750000), wk =   0.0026042
        k(  351) = (  -0.0416667  -0.2500000   0.1250000), wk =   0.0026042
        k(  352) = (  -0.0416667  -0.2500000   0.2500000), wk =   0.0026042
        k(  353) = (  -0.0416667  -0.2500000   0.3750000), wk =   0.0026042
        k(  354) = (  -0.0416667  -0.2916667   0.1250000), wk =   0.0026042
        k(  355) = (  -0.0416667  -0.2916667   0.2500000), wk =   0.0026042
        k(  356) = (  -0.0416667  -0.2916667   0.3750000), wk =   0.0026042
        k(  357) = (  -0.0416667  -0.3333333   0.1250000), wk =   0.0026042
        k(  358) = (  -0.0416667  -0.3333333   0.2500000), wk =   0.0026042
        k(  359) = (  -0.0416667  -0.3333333   0.3750000), wk =   0.0026042
        k(  360) = (  -0.0416667  -0.3750000   0.1250000), wk =   0.0026042
        k(  361) = (  -0.0416667  -0.3750000   0.2500000), wk =   0.0026042
        k(  362) = (  -0.0416667  -0.3750000   0.3750000), wk =   0.0026042
        k(  363) = (  -0.0416667  -0.4166667   0.1250000), wk =   0.0026042
        k(  364) = (  -0.0416667  -0.4166667   0.2500000), wk =   0.0026042
        k(  365) = (  -0.0416667  -0.4166667   0.3750000), wk =   0.0026042
        k(  366) = (  -0.0416667  -0.4583333   0.1250000), wk =   0.0026042
        k(  367) = (  -0.0416667  -0.4583333   0.2500000), wk =   0.0026042
        k(  368) = (  -0.0416667  -0.4583333   0.3750000), wk =   0.0026042
        k(  369) = (  -0.0833333  -0.1250000   0.1250000), wk =   0.0026042
        k(  370) = (  -0.0833333  -0.1250000   0.2500000), wk =   0.0026042
        k(  371) = (  -0.0833333  -0.1250000   0.3750000), wk =   0.0026042
        k(  372) = (  -0.0833333  -0.1666667   0.1250000), wk =   0.0026042
        k(  373) = (  -0.0833333  -0.1666667   0.2500000), wk =   0.0026042
        k(  374) = (  -0.0833333  -0.1666667   0.3750000), wk =   0.0026042
        k(  375) = (  -0.0833333  -0.2083333   0.1250000), wk =   0.0026042
        k(  376) = (  -0.0833333  -0.2083333   0.2500000), wk =   0.0026042
        k(  377) = (  -0.0833333  -0.2083333   0.3750000), wk =   0.0026042
        k(  378) = (  -0.0833333  -0.2500000   0.1250000), wk =   0.0026042
        k(  379) = (  -0.0833333  -0.2500000   0.2500000), wk =   0.0026042
        k(  380) = (  -0.0833333  -0.2500000   0.3750000), wk =   0.0026042
        k(  381) = (  -0.0833333  -0.2916667   0.1250000), wk =   0.0026042
        k(  382) = (  -0.0833333  -0.2916667   0.2500000), wk =   0.0026042
        k(  383) = (  -0.0833333  -0.2916667   0.3750000), wk =   0.0026042
        k(  384) = (  -0.0833333  -0.3333333   0.1250000), wk =   0.0026042
        k(  385) = (  -0.0833333  -0.3333333   0.2500000), wk =   0.0026042
        k(  386) = (  -0.0833333  -0.3333333   0.3750000), wk =   0.0026042
        k(  387) = (  -0.0833333  -0.3750000   0.1250000), wk =   0.0026042
        k(  388) = (  -0.0833333  -0.3750000   0.2500000), wk =   0.0026042
        k(  389) = (  -0.0833333  -0.3750000   0.3750000), wk =   0.0026042
        k(  390) = (  -0.0833333  -0.4166667   0.1250000), wk =   0.0026042
        k(  391) = (  -0.0833333  -0.4166667   0.2500000), wk =   0.0026042
        k(  392) = (  -0.0833333  -0.4166667   0.3750000), wk =   0.0026042
        k(  393) = (  -0.1250000  -0.1666667   0.1250000), wk =   0.0026042
        k(  394) = (  -0.1250000  -0.1666667   0.2500000), wk =   0.0026042
        k(  395) = (  -0.1250000  -0.1666667   0.3750000), wk =   0.0026042
        k(  396) = (  -0.1250000  -0.2083333   0.1250000), wk =   0.0026042
        k(  397) = (  -0.1250000  -0.2083333   0.2500000), wk =   0.0026042
        k(  398) = (  -0.1250000  -0.2083333   0.3750000), wk =   0.0026042
        k(  399) = (  -0.1250000  -0.2500000   0.1250000), wk =   0.0026042
        k(  400) = (  -0.1250000  -0.2500000   0.2500000), wk =   0.0026042
        k(  401) = (  -0.1250000  -0.2500000   0.3750000), wk =   0.0026042
        k(  402) = (  -0.1250000  -0.2916667   0.1250000), wk =   0.0026042
        k(  403) = (  -0.1250000  -0.2916667   0.2500000), wk =   0.0026042
        k(  404) = (  -0.1250000  -0.2916667   0.3750000), wk =   0.0026042
        k(  405) = (  -0.1250000  -0.3333333   0.1250000), wk =   0.0026042
        k(  406) = (  -0.1250000  -0.3333333   0.2500000), wk =   0.0026042
        k(  407) = (  -0.1250000  -0.3333333   0.3750000), wk =   0.0026042
        k(  408) = (  -0.1250000  -0.3750000   0.1250000), wk =   0.0026042
        k(  409) = (  -0.1250000  -0.3750000   0.2500000), wk =   0.0026042
        k(  410) = (  -0.1250000  -0.3750000   0.3750000), wk =   0.0026042
        k(  411) = (  -0.1250000  -0.4166667   0.1250000), wk =   0.0026042
        k(  412) = (  -0.1250000  -0.4166667   0.2500000), wk =   0.0026042
        k(  413) = (  -0.1250000  -0.4166667   0.3750000), wk =   0.0026042
        k(  414) = (  -0.1666667  -0.2083333   0.1250000), wk =   0.0026042
        k(  415) = (  -0.1666667  -0.2083333   0.2500000), wk =   0.0026042
        k(  416) = (  -0.1666667  -0.2083333   0.3750000), wk =   0.0026042
        k(  417) = (  -0.1666667  -0.2500000   0.1250000), wk =   0.0026042
        k(  418) = (  -0.1666667  -0.2500000   0.2500000), wk =   0.0026042
        k(  419) = (  -0.1666667  -0.2500000   0.3750000), wk =   0.0026042
        k(  420) = (  -0.1666667  -0.2916667   0.1250000), wk =   0.0026042
        k(  421) = (  -0.1666667  -0.2916667   0.2500000), wk =   0.0026042
        k(  422) = (  -0.1666667  -0.2916667   0.3750000), wk =   0.0026042
        k(  423) = (  -0.1666667  -0.3333333   0.1250000), wk =   0.0026042
        k(  424) = (  -0.1666667  -0.3333333   0.2500000), wk =   0.0026042
        k(  425) = (  -0.1666667  -0.3333333   0.3750000), wk =   0.0026042
        k(  426) = (  -0.1666667  -0.3750000   0.1250000), wk =   0.0026042
        k(  427) = (  -0.1666667  -0.3750000   0.2500000), wk =   0.0026042
        k(  428) = (  -0.1666667  -0.3750000   0.3750000), wk =   0.0026042
        k(  429) = (  -0.2083333  -0.2500000   0.1250000), wk =   0.0026042
        k(  430) = (  -0.2083333  -0.2500000   0.2500000), wk =   0.0026042
        k(  431) = (  -0.2083333  -0.2500000   0.3750000), wk =   0.0026042
        k(  432) = (  -0.2083333  -0.2916667   0.1250000), wk =   0.0026042
        k(  433) = (  -0.2083333  -0.2916667   0.2500000), wk =   0.0026042
        k(  434) = (  -0.2083333  -0.2916667   0.3750000), wk =   0.0026042
        k(  435) = (  -0.2083333  -0.3333333   0.1250000), wk =   0.0026042
        k(  436) = (  -0.2083333  -0.3333333   0.2500000), wk =   0.0026042
        k(  437) = (  -0.2083333  -0.3333333   0.3750000), wk =   0.0026042
        k(  438) = (  -0.2083333  -0.3750000   0.1250000), wk =   0.0026042
        k(  439) = (  -0.2083333  -0.3750000   0.2500000), wk =   0.0026042
        k(  440) = (  -0.2083333  -0.3750000   0.3750000), wk =   0.0026042
        k(  441) = (  -0.2500000  -0.2916667   0.1250000), wk =   0.0026042
        k(  442) = (  -0.2500000  -0.2916667   0.2500000), wk =   0.0026042
        k(  443) = (  -0.2500000  -0.2916667   0.3750000), wk =   0.0026042
        k(  444) = (  -0.2500000  -0.3333333   0.1250000), wk =   0.0026042
        k(  445) = (  -0.2500000  -0.3333333   0.2500000), wk =   0.0026042
        k(  446) = (  -0.2500000  -0.3333333   0.3750000), wk =   0.0026042
        k(  447) = (  -0.2916667  -0.3333333   0.1250000), wk =   0.0026042
        k(  448) = (  -0.2916667  -0.3333333   0.2500000), wk =   0.0026042
        k(  449) = (  -0.2916667  -0.3333333   0.3750000), wk =   0.0026042

     Dense  grid:    81725 G-vectors     FFT dimensions: (  40,  40, 135)

     Smooth grid:    28863 G-vectors     FFT dimensions: (  27,  27,  96)

     Dynamical RAM for                 wfc:       1.32 MB

     Dynamical RAM for     wfc (w. buffer):       1.32 MB

     Dynamical RAM for           str. fact:       3.74 MB

     Dynamical RAM for           local pot:       0.00 MB

     Dynamical RAM for          nlocal pot:       2.31 MB

     Dynamical RAM for                qrad:       5.27 MB

     Dynamical RAM for          rho,v,vnew:      17.37 MB

     Dynamical RAM for           G-vectors:       4.90 MB

     Dynamical RAM for          h,s,v(r/c):       0.11 MB

     Dynamical RAM for          <psi|beta>:       0.02 MB

     Dynamical RAM for                 psi:       2.64 MB

     Dynamical RAM for                hpsi:       2.64 MB

     Dynamical RAM for                spsi:       2.64 MB

     Dynamical RAM for      wfcinit/wfcrot:       2.66 MB

     Dynamical RAM for           addusdens:     235.69 MB

     Estimated static dynamical RAM per process >      49.79 MB

     Estimated max dynamical RAM per process >     285.48 MB

     Check: negative core charge=   -0.000006
     Generating pointlists ...
     new r_m :   0.2765 (alat units)  1.4733 (a.u.) for type    1
     new r_m :   0.2765 (alat units)  1.4733 (a.u.) for type    2
     new r_m :   0.4125 (alat units)  2.1982 (a.u.) for type    3

     The potential is recalculated from file :
     ../Li_1x1_c9.9_d1.00/out/pw.save/charge-density

     Starting wfcs are   23 randomized atomic wfcs +    1 random wfcs
     Checking if some PAW data can be deallocated... 

     Band Structure Calculation
     Davidson diagonalization with overlap

     Computing kpt #:     1  of   898
     total cpu time spent up to now is        3.5 secs

     Computing kpt #:     2  of   898
     total cpu time spent up to now is        3.7 secs

     Computing kpt #:     3  of   898
     total cpu time spent up to now is        3.9 secs

     Computing kpt #:     4  of   898
     total cpu time spent up to now is        4.0 secs

     Computing kpt #:     5  of   898
     total cpu time spent up to now is        4.1 secs

     Computing kpt #:     6  of   898
     total cpu time spent up to now is        4.3 secs

     Computing kpt #:     7  of   898
     total cpu time spent up to now is        4.4 secs

     Computing kpt #:     8  of   898
[...]
     1.0000   1.0000   1.0000   1.0000   1.0000   1.0575   0.8484   0.3257
     0.0068   0.0000   0.0000   0.0000   0.0000   0.0000   0.0000   0.0000

          k =-0.1667-0.4330 0.0356 (  3600 PWs)   bands (ev):

   -92.3815 -55.7192 -55.6823 -55.5263 -44.3616 -15.3264 -14.7551  -3.0273
    -2.5155  -1.5467  -0.8818  -0.7396   0.7724   2.4033   2.5276   2.9491
     3.5619   4.8532   5.0451   8.2717   9.1557  11.8689  13.3870  14.3807

     occupation numbers 
     1.0000   1.0000   1.0000   1.0000   1.0000   1.0000   1.0000   1.0000
     1.0000   1.0000   1.0000   1.0000   1.0000   1.0703   1.0730   0.2097
     0.0000   0.0000   0.0000   0.0000   0.0000   0.0000   0.0000   0.0000

          k =-0.1667-0.4330 0.0712 (  3598 PWs)   bands (ev):

   -92.3815 -55.7192 -55.6823 -55.5263 -44.3616 -15.3264 -14.7551  -3.0273
    -2.5156  -1.5467  -0.8816  -0.7395   0.7722   2.4036   2.5278   2.9457
     3.5658   4.8506   5.0459   8.2785   9.1541  11.8457  13.3908  14.4171

     occupation numbers 
     1.0000   1.0000   1.0000   1.0000   1.0000   1.0000   1.0000   1.0000
     1.0000   1.0000   1.0000   1.0000   1.0000   1.0704   1.0729   0.2157
     0.0000   0.0000   0.0000   0.0000   0.0000   0.0000   0.0000   0.0000

          k =-0.1667-0.4330 0.1068 (  3603 PWs)   bands (ev):

   -92.3815 -55.7192 -55.6823 -55.5264 -44.3616 -15.3264 -14.7551  -3.0273
    -2.5156  -1.5467  -0.8815  -0.7395   0.7722   2.4038   2.5277   2.9436
     3.5666   4.8534   5.0443   8.2798   9.1528  11.8379  13.3948  14.4569

     occupation numbers 
     1.0000   1.0000   1.0000   1.0000   1.0000   1.0000   1.0000   1.0000
     1.0000   1.0000   1.0000   1.0000   1.0000   1.0705   1.0730   0.2195
     0.0000   0.0000   0.0000   0.0000   0.0000   0.0000   0.0000   0.0000

          k =-0.1667-0.4811 0.0356 (  3603 PWs)   bands (ev):

   -92.3810 -55.7233 -55.6848 -55.5255 -44.3596 -15.1824 -14.7850  -3.2134
    -2.4914  -1.4717  -0.8780  -0.6556   0.5621   2.3640   2.4548   2.9332
     3.9535   4.9159   5.0818   8.3297   9.0491  12.0700  13.0625  13.9788

     occupation numbers 
     1.0000   1.0000   1.0000   1.0000   1.0000   1.0000   1.0000   1.0000
     1.0000   1.0000   1.0000   1.0000   1.0000   1.0574   1.0820   0.2387
     0.0000   0.0000   0.0000   0.0000   0.0000   0.0000   0.0000   0.0000

          k =-0.1667-0.4811 0.0712 (  3606 PWs)   bands (ev):

   -92.3810 -55.7233 -55.6848 -55.5255 -44.3596 -15.1824 -14.7850  -3.2134
    -2.4914  -1.4717  -0.8779  -0.6555   0.5622   2.3641   2.4550   2.9320
     3.9556   4.9135   5.0819   8.3284   9.0585  12.0491  13.0561  13.9976

     occupation numbers 
     1.0000   1.0000   1.0000   1.0000   1.0000   1.0000   1.0000   1.0000
     1.0000   1.0000   1.0000   1.0000   1.0000   1.0574   1.0820   0.2412
     0.0000   0.0000   0.0000   0.0000   0.0000   0.0000   0.0000   0.0000

          k =-0.1667-0.4811 0.1068 (  3604 PWs)   bands (ev):

   -92.3810 -55.7233 -55.6848 -55.5255 -44.3596 -15.1824 -14.7850  -3.2134
    -2.4913  -1.4717  -0.8779  -0.6555   0.5623   2.3640   2.4551   2.9312
     3.9555   4.9152   5.0805   8.3283   9.0607  12.0397  13.0593  14.0292

     occupation numbers 
     1.0000   1.0000   1.0000   1.0000   1.0000   1.0000   1.0000   1.0000
     1.0000   1.0000   1.0000   1.0000   1.0000   1.0574   1.0820   0.2428
     0.0000   0.0000   0.0000   0.0000   0.0000   0.0000   0.0000   0.0000

          k =-0.1667-0.5292 0.0356 (  3600 PWs)   bands (ev):

   -92.3807 -55.7258 -55.6864 -55.5250 -44.3583 -15.0749 -14.8192  -3.3416
    -2.4715  -1.3556  -0.9672  -0.5576   0.4230   2.2556   2.4942   2.9015
     4.2864   4.9629   5.1019   7.8060   9.7450  12.1248  12.2233  14.4088

     occupation numbers 
     1.0000   1.0000   1.0000   1.0000   1.0000   1.0000   1.0000   1.0000
     1.0000   1.0000   1.0000   1.0000   1.0000   1.0240   1.0821   0.3041
     0.0000   0.0000   0.0000   0.0000   0.0000   0.0000   0.0000   0.0000

          k =-0.1667-0.5292 0.0712 (  3604 PWs)   bands (ev):

   -92.3807 -55.7258 -55.6864 -55.5250 -44.3584 -15.0749 -14.8192  -3.3416
    -2.4715  -1.3556  -0.9672  -0.5576   0.4231   2.2556   2.4943   2.9009
     4.2875   4.9626   5.1008   7.8038   9.7558  12.1205  12.2169  14.3918

     occupation numbers 
     1.0000   1.0000   1.0000   1.0000   1.0000   1.0000   1.0000   1.0000
     1.0000   1.0000   1.0000   1.0000   1.0000   1.0240   1.0821   0.3054
     0.0000   0.0000   0.0000   0.0000   0.0000   0.0000   0.0000   0.0000

          k =-0.1667-0.5292 0.1068 (  3603 PWs)   bands (ev):

   -92.3807 -55.7258 -55.6864 -55.5250 -44.3583 -15.0749 -14.8192  -3.3416
    -2.4715  -1.3556  -0.9672  -0.5576   0.4233   2.2555   2.4945   2.9004
     4.2874   4.9646   5.0987   7.8022   9.7603  12.1202  12.2191  14.4089

     occupation numbers 
     1.0000   1.0000   1.0000   1.0000   1.0000   1.0000   1.0000   1.0000
     1.0000   1.0000   1.0000   1.0000   1.0000   1.0240   1.0821   0.3064
     0.0000   0.0000   0.0000   0.0000   0.0000   0.0000   0.0000   0.0000

          k =-0.2083-0.4090 0.0356 (  3602 PWs)   bands (ev):

   -92.3816 -55.7168 -55.6844 -55.5263 -44.3617 -15.3432 -14.7458  -2.8271
    -2.6278  -1.5824  -0.9534  -0.7838   0.8033   2.4235   2.5641   2.9879
     3.5439   4.8641   4.9409   8.2120   9.3048  11.6211  13.3398  15.0469

     occupation numbers 
     1.0000   1.0000   1.0000   1.0000   1.0000   1.0000   1.0000   1.0000
     1.0000   1.0000   1.0000   1.0000   1.0000   1.0760   1.0504   0.1486
     0.0000   0.0000   0.0000   0.0000   0.0000   0.0000   0.0000   0.0000

          k =-0.2083-0.4090 0.0712 (  3607 PWs)   bands (ev):

   -92.3816 -55.7169 -55.6844 -55.5264 -44.3617 -15.3432 -14.7458  -2.8271
    -2.6278  -1.5824  -0.9533  -0.7837   0.8031   2.4238   2.5645   2.9837
     3.5485   4.8593   4.9440   8.2168   9.3039  11.6061  13.3464  15.0800

     occupation numbers 
     1.0000   1.0000   1.0000   1.0000   1.0000   1.0000   1.0000   1.0000
     1.0000   1.0000   1.0000   1.0000   1.0000   1.0760   1.0501   0.1546
     0.0000   0.0000   0.0000   0.0000   0.0000   0.0000   0.0000   0.0000

          k =-0.2083-0.4090 0.1068 (  3617 PWs)   bands (ev):

   -92.3816 -55.7169 -55.6844 -55.5264 -44.3618 -15.3433 -14.7458  -2.8271
    -2.6279  -1.5824  -0.9532  -0.7835   0.8030   2.4240   2.5647   2.9801
     3.5517   4.8586   4.9442   8.2196   9.3032  11.5957  13.3530  15.1144

     occupation numbers 
     1.0000   1.0000   1.0000   1.0000   1.0000   1.0000   1.0000   1.0000
     1.0000   1.0000   1.0000   1.0000   1.0000   1.0761   1.0499   0.1598
     0.0000   0.0000   0.0000   0.0000   0.0000   0.0000   0.0000   0.0000

          k =-0.2083-0.4571 0.0356 (  3604 PWs)   bands (ev):

   -92.3810 -55.7200 -55.6882 -55.5255 -44.3596 -15.2008 -14.7672  -2.9919
    -2.5975  -1.5889  -0.9296  -0.6811   0.5680   2.4030   2.4890   2.9947
     3.9529   4.8861   4.9895   8.4630   8.9225  11.7395  13.5025  14.2422

     occupation numbers 
     1.0000   1.0000   1.0000   1.0000   1.0000   1.0000   1.0000   1.0000
     1.0000   1.0000   1.0000   1.0000   1.0000   1.0702   1.0827   0.1395
     0.0000   0.0000   0.0000   0.0000   0.0000   0.0000   0.0000   0.0000

          k =-0.2083-0.4571 0.0712 (  3607 PWs)   bands (ev):

   -92.3810 -55.7200 -55.6882 -55.5255 -44.3596 -15.2008 -14.7672  -2.9919
    -2.5976  -1.5890  -0.9296  -0.6809   0.5679   2.4030   2.4893   2.9930
     3.9562   4.8808   4.9916   8.4627   8.9298  11.7256  13.4899  14.2669

     occupation numbers 
     1.0000   1.0000   1.0000   1.0000   1.0000   1.0000   1.0000   1.0000
     1.0000   1.0000   1.0000   1.0000   1.0000   1.0702   1.0827   0.1417
     0.0000   0.0000   0.0000   0.0000   0.0000   0.0000   0.0000   0.0000

          k =-0.2083-0.4571 0.1068 (  3608 PWs)   bands (ev):

   -92.3810 -55.7200 -55.6881 -55.5255 -44.3596 -15.2008 -14.7672  -2.9919
    -2.5976  -1.5890  -0.9296  -0.6808   0.5679   2.4030   2.4895   2.9918
     3.9580   4.8790   4.9919   8.4633   8.9330  11.7170  13.4866  14.2922

     occupation numbers 
     1.0000   1.0000   1.0000   1.0000   1.0000   1.0000   1.0000   1.0000
     1.0000   1.0000   1.0000   1.0000   1.0000   1.0702   1.0827   0.1434
     0.0000   0.0000   0.0000   0.0000   0.0000   0.0000   0.0000   0.0000

          k =-0.2083-0.5052 0.0356 (  3604 PWs)   bands (ev):

   -92.3806 -55.7221 -55.6910 -55.5249 -44.3581 -15.0881 -14.7921  -3.1257
    -2.5699  -1.5656  -0.9265  -0.5751   0.3719   2.2761   2.5561   2.9683
     4.3530   4.9259   5.0157   7.8012   9.6310  11.7897  12.8569  14.3982

     occupation numbers 
     1.0000   1.0000   1.0000   1.0000   1.0000   1.0000   1.0000   1.0000
     1.0000   1.0000   1.0000   1.0000   1.0000   1.0292   1.0566   0.1777
     0.0000   0.0000   0.0000   0.0000   0.0000   0.0000   0.0000   0.0000

          k =-0.2083-0.5052 0.0712 (  3608 PWs)   bands (ev):

   -92.3807 -55.7221 -55.6910 -55.5249 -44.3581 -15.0881 -14.7921  -3.1257
    -2.5699  -1.5656  -0.9265  -0.5750   0.3719   2.2761   2.5563   2.9676
     4.3564   4.9219   5.0158   7.7998   9.6402  11.7807  12.8579  14.3867

     occupation numbers 
     1.0000   1.0000   1.0000   1.0000   1.0000   1.0000   1.0000   1.0000
     1.0000   1.0000   1.0000   1.0000   1.0000   1.0292   1.0565   0.1788
     0.0000   0.0000   0.0000   0.0000   0.0000   0.0000   0.0000   0.0000

          k =-0.2083-0.5052 0.1068 (  3605 PWs)   bands (ev):

   -92.3806 -55.7221 -55.6910 -55.5249 -44.3581 -15.0881 -14.7921  -3.1257
    -2.5699  -1.5656  -0.9265  -0.5750   0.3720   2.2760   2.5564   2.9670
     4.3584   4.9206   5.0146   7.7990   9.6450  11.7752  12.8659  14.3915

     occupation numbers 
     1.0000   1.0000   1.0000   1.0000   1.0000   1.0000   1.0000   1.0000
     1.0000   1.0000   1.0000   1.0000   1.0000   1.0292   1.0564   0.1797
     0.0000   0.0000   0.0000   0.0000   0.0000   0.0000   0.0000   0.0000

          k =-0.2083-0.5533 0.0356 (  3604 PWs)   bands (ev):

   -92.3804 -55.7231 -55.6925 -55.5246 -44.3573 -15.0199 -14.8142  -3.1984
    -2.5576  -1.5326  -0.9342  -0.5121   0.2590   2.2059   2.6044   2.9388
     4.6248   4.9442   5.0460   7.3788  10.2666  11.8051  12.1131  14.9376

     occupation numbers 
     1.0000   1.0000   1.0000   1.0000   1.0000   1.0000   1.0000   1.0000
     1.0000   1.0000   1.0000   1.0000   1.0000   1.0141   1.0075   0.2282
     0.0000   0.0000   0.0000   0.0000   0.0000   0.0000   0.0000   0.0000

          k =-0.2083-0.5533 0.0712 (  3598 PWs)   bands (ev):

   -92.3804 -55.7230 -55.6924 -55.5246 -44.3573 -15.0199 -14.8142  -3.1984
    -2.5575  -1.5326  -0.9342  -0.5121   0.2591   2.2059   2.6045   2.9384
     4.6281   4.9439   5.0426   7.3772  10.2742  11.8009  12.1199  14.9024

     occupation numbers 
     1.0000   1.0000   1.0000   1.0000   1.0000   1.0000   1.0000   1.0000
     1.0000   1.0000   1.0000   1.0000   1.0000   1.0141   1.0074   0.2290
     0.0000   0.0000   0.0000   0.0000   0.0000   0.0000   0.0000   0.0000

          k =-0.2083-0.5533 0.1068 (  3596 PWs)   bands (ev):

   -92.3804 -55.7230 -55.6924 -55.5246 -44.3573 -15.0199 -14.8142  -3.1984
    -2.5575  -1.5326  -0.9341  -0.5122   0.2593   2.2059   2.6047   2.9381
     4.6308   4.9449   5.0387   7.3756  10.2789  11.7973  12.1306  14.8942

     occupation numbers 
     1.0000   1.0000   1.0000   1.0000   1.0000   1.0000   1.0000   1.0000
     1.0000   1.0000   1.0000   1.0000   1.0000   1.0141   1.0072   0.2297
     0.0000   0.0000   0.0000   0.0000   0.0000   0.0000   0.0000   0.0000

          k =-0.2500-0.4811 0.0356 (  3617 PWs)   bands (ev):

   -92.3806 -55.7194 -55.6942 -55.5249 -44.3580 -15.0959 -14.7772  -2.9316
    -2.6557  -1.7537  -0.8832  -0.5719   0.3420   2.2854   2.5915   3.0081
     4.3804   4.9008   4.9765   7.8059   9.5613  11.5908  13.4664  14.4647

     occupation numbers 
     1.0000   1.0000   1.0000   1.0000   1.0000   1.0000   1.0000   1.0000
     1.0000   1.0000   1.0000   1.0000   1.0000   1.0318   1.0234   0.1225
     0.0000   0.0000   0.0000   0.0000   0.0000   0.0000   0.0000   0.0000

          k =-0.2500-0.4811 0.0712 (  3609 PWs)   bands (ev):

   -92.3806 -55.7193 -55.6942 -55.5248 -44.3580 -15.0959 -14.7772  -2.9316
    -2.6557  -1.7536  -0.8831  -0.5717   0.3419   2.2854   2.5917   3.0074
     4.3852   4.8940   4.9779   7.8051   9.5688  11.5849  13.4635  14.4559

     occupation numbers 
     1.0000   1.0000   1.0000   1.0000   1.0000   1.0000   1.0000   1.0000
     1.0000   1.0000   1.0000   1.0000   1.0000   1.0318   1.0232   0.1234
     0.0000   0.0000   0.0000   0.0000   0.0000   0.0000   0.0000   0.0000

          k =-0.2500-0.4811 0.1068 (  3605 PWs)   bands (ev):

   -92.3806 -55.7193 -55.6942 -55.5248 -44.3580 -15.0959 -14.7772  -2.9316
    -2.6557  -1.7537  -0.8831  -0.5716   0.3419   2.2854   2.5918   3.0067
     4.3895   4.8884   4.9786   7.8046   9.5747  11.5798  13.4655  14.4467

     occupation numbers 
     1.0000   1.0000   1.0000   1.0000   1.0000   1.0000   1.0000   1.0000
     1.0000   1.0000   1.0000   1.0000   1.0000   1.0318   1.0230   0.1243
     0.0000   0.0000   0.0000   0.0000   0.0000   0.0000   0.0000   0.0000

          k =-0.2500-0.5292 0.0356 (  3608 PWs)   bands (ev):

   -92.3804 -55.7193 -55.6975 -55.5245 -44.3570 -15.0197 -14.7925  -2.9902
    -2.6309  -1.8175  -0.8115  -0.4909   0.1582   2.1982   2.6725   2.9753
     4.7069   4.9234   5.0671   7.2100  10.2570  11.5693  12.7461  14.7108

     occupation numbers 
     1.0000   1.0000   1.0000   1.0000   1.0000   1.0000   1.0000   1.0000
     1.0000   1.0000   1.0000   1.0000   1.0000   1.0129   0.8900   0.1670
     0.0000   0.0000   0.0000   0.0000   0.0000   0.0000   0.0000   0.0000

          k =-0.2500-0.5292 0.0712 (  3605 PWs)   bands (ev):

   -92.3803 -55.7193 -55.6975 -55.5244 -44.3570 -15.0197 -14.7925  -2.9902
    -2.6309  -1.8175  -0.8115  -0.4909   0.1582   2.1982   2.6726   2.9749
     4.7133   4.9218   5.0619   7.2088  10.2636  11.5661  12.7524  14.6950

     occupation numbers 
     1.0000   1.0000   1.0000   1.0000   1.0000   1.0000   1.0000   1.0000
     1.0000   1.0000   1.0000   1.0000   1.0000   1.0129   0.8898   0.1675
     0.0000   0.0000   0.0000   0.0000   0.0000   0.0000   0.0000   0.0000

          k =-0.2500-0.5292 0.1068 (  3595 PWs)   bands (ev):

   -92.3803 -55.7193 -55.6975 -55.5244 -44.3569 -15.0197 -14.7925  -2.9902
    -2.6309  -1.8175  -0.8114  -0.4908   0.1583   2.1982   2.6727   2.9746
     4.7193   4.9208   5.0564   7.2077  10.2682  11.5641  12.7628  14.6783

     occupation numbers 
     1.0000   1.0000   1.0000   1.0000   1.0000   1.0000   1.0000   1.0000
     1.0000   1.0000   1.0000   1.0000   1.0000   1.0129   0.8896   0.1680
     0.0000   0.0000   0.0000   0.0000   0.0000   0.0000   0.0000   0.0000

          k =-0.2917-0.5533 0.0356 (  3607 PWs)   bands (ev):

   -92.3802 -55.7152 -55.7039 -55.5242 -44.3562 -14.9810 -14.7879  -2.8361
    -2.6574  -2.0837  -0.6543  -0.4108  -0.0634   2.1466   2.7820   2.9495
     4.8127   4.8900   5.4668   6.6047  10.7844  11.4656  12.7938  13.9365

     occupation numbers 
     1.0000   1.0000   1.0000   1.0000   1.0000   1.0000   1.0000   1.0000
     1.0000   1.0000   1.0000   1.0000   1.0000   1.0068   0.6122   0.2089
     0.0000   0.0000   0.0000   0.0000   0.0000   0.0000   0.0000   0.0000

          k =-0.2917-0.5533 0.0712 (  3597 PWs)   bands (ev):

   -92.3802 -55.7152 -55.7039 -55.5241 -44.3562 -14.9810 -14.7879  -2.8361
    -2.6573  -2.0837  -0.6542  -0.4107  -0.0633   2.1466   2.7820   2.9494
     4.8157   4.8906   5.4631   6.6033  10.7869  11.4655  12.8042  13.9446

     occupation numbers 
     1.0000   1.0000   1.0000   1.0000   1.0000   1.0000   1.0000   1.0000
     1.0000   1.0000   1.0000   1.0000   1.0000   1.0068   0.6121   0.2092
     0.0000   0.0000   0.0000   0.0000   0.0000   0.0000   0.0000   0.0000

          k =-0.2917-0.5533 0.1068 (  3594 PWs)   bands (ev):

   -92.3802 -55.7152 -55.7039 -55.5241 -44.3562 -14.9810 -14.7879  -2.8361
    -2.6573  -2.0837  -0.6542  -0.4107  -0.0633   2.1466   2.7820   2.9492
     4.8187   4.8911   5.4594   6.6018  10.7889  11.4650  12.8159  13.9517

     occupation numbers 
     1.0000   1.0000   1.0000   1.0000   1.0000   1.0000   1.0000   1.0000
     1.0000   1.0000   1.0000   1.0000   1.0000   1.0068   0.6121   0.2096
     0.0000   0.0000   0.0000   0.0000   0.0000   0.0000   0.0000   0.0000

     the Fermi energy is     2.8607 ev
     (compare with:     2.8723 eV, computed in scf)

     Writing all to output data dir ../Li_1x1_c9.9_d1.00/out/pw.save/ :
     XML data file, pseudopotentials, collected wavefunctions
 
     init_run     :     12.11s CPU      2.81s WALL (       1 calls)
     electrons    :    184.20s CPU    184.27s WALL (       1 calls)

     Called by init_run:
     wfcinit      :      0.00s CPU      0.00s WALL (       1 calls)
     wfcinit:atom :      0.69s CPU      0.74s WALL (     898 calls)
     wfcinit:wfcr :      2.42s CPU      2.43s WALL (     898 calls)
     potinit      :     11.33s CPU      1.99s WALL (       1 calls)
     hinit0       :      0.42s CPU      0.41s WALL (       1 calls)

     Called by electrons:
     c_bands      :    184.18s CPU    184.25s WALL (       1 calls)
     v_of_rho     :      0.02s CPU      0.09s WALL (       1 calls)
     v_h          :      0.01s CPU      0.00s WALL (       1 calls)
     v_xc         :      0.01s CPU      0.08s WALL (       1 calls)
     newd         :      0.05s CPU      0.07s WALL (       1 calls)
                                        0.07s GPU  (       1 calls)
     PAW_pot      :      4.39s CPU      0.55s WALL (       1 calls)

     Called by c_bands:
     init_us_2    :      0.30s CPU      0.37s WALL (     898 calls)
     cegterg      :    179.81s CPU    179.74s WALL (    3619 calls)

     Called by sum_band:

     Called by *egterg:
     cdiaghg      :     58.18s CPU     60.06s WALL (   65730 calls)
                                       59.25s GPU  (   65730 calls)
     cegterg:over :     15.62s CPU     16.27s WALL (   64832 calls)
     cegterg:upda :     14.10s CPU     14.18s WALL (   64832 calls)
     cegterg:last :      3.31s CPU      3.22s WALL (   34724 calls)
     h_psi        :     63.25s CPU     62.58s WALL (   69349 calls)
                                       61.72s GPU  (   69349 calls)
     s_psi        :     10.48s CPU     11.08s WALL (   69349 calls)
     g_psi        :      0.33s CPU      1.65s WALL (   64832 calls)
                                        0.84s GPU  (   64832 calls)

     Called by h_psi:
     h_psi:calbec :      1.78s CPU      3.41s WALL (   69349 calls)
                                        2.54s GPU  (   69349 calls)
     vloc_psi     :     44.51s CPU     42.89s WALL (   69349 calls)
                                       42.01s GPU  (   69349 calls)
     add_vuspsi   :      9.51s CPU     11.38s WALL (   69349 calls)
                                       10.49s GPU  (   69349 calls)

     General routines
     calbec       :      1.61s CPU      1.75s WALL (   69349 calls)
     fft          :      2.88s CPU      0.57s WALL (      23 calls)
                                        0.00s GPU  (      21 calls)
     ffts         :      4.02s CPU      0.78s WALL (       2 calls)
     fftw         :      3.55s CPU     12.73s WALL (  200192 calls)
                                       10.43s GPU  (  200192 calls)
     interpolate  :      6.91s CPU      1.34s WALL (       2 calls)
     davcio       :      1.45s CPU      0.33s WALL (    1796 calls)
 
     Parallel routines

     PAW routines
     PAW_pot      :      4.39s CPU      0.55s WALL (       1 calls)
 
     PWSCF        :   3m24.60s CPU   3m 8.42s WALL

 
   This run was terminated on:   2:52:21  12Jul2026            

=------------------------------------------------------------------------------=
   JOB DONE.
=------------------------------------------------------------------------------=
Warning: ieee_divide_by_zero is signaling
Warning: ieee_inexact is signaling
FORTRAN STOP
