
     Program PWSCF v.7.3.1 starts on 12Jul2026 at  2:47:28 

     This program is part of the open-source Quantum ESPRESSO suite
     for quantum simulation of materials; please cite
         "P. Giannozzi et al., J. Phys.:Condens. Matter 21 395502 (2009);
         "P. Giannozzi et al., J. Phys.:Condens. Matter 29 465901 (2017);
         "P. Giannozzi et al., J. Chem. Phys. 152 154105 (2020);
          URL http://www.quantum-espresso.org", 
     in publications or presentations arising from this work. More details at
     http://www.quantum-espresso.org/quote

     Parallel version (MPI & OpenMP), running on      14 processor cores
     Number of MPI processes:                 1
     Threads/MPI process:                    14

     MPI processes distributed on     1 nodes
     844010 MiB available memory on the printing compute node when the environment starts
 
     Reading input from pw.in

     Current dimensions of program PWSCF are:
     Max number of different atomic species (ntypx) = 10
     Max number of k-points (npk) =  40000
     Max angular momentum in pseudopotentials (lmaxx) =  4
     file Co.pbe-spn-kjpaw_psl.0.3.1.UPF: wavefunction(s)  3P 3D renormalized
     file O.pbe-n-kjpaw_psl.1.0.0.UPF: wavefunction(s)  2S 2P renormalized
     file Na.pbe-spn-kjpaw_psl.1.0.0.UPF: wavefunction(s)  2P renormalized
 
     Subspace diagonalization in iterative solution of the eigenvalue problem:
     a serial algorithm will be used

 
     G-vector sticks info
     --------------------
     sticks:   dense  smooth     PW     G-vecs:    dense   smooth      PW
     Sum        2941    1483    421               256907    90927   13609
 
     Using Slab Decomposition
 


     bravais-lattice index     =            4
     lattice parameter (alat)  =       9.4527  a.u.
     unit-cell volume          =    1447.6983 (a.u.)^3
     number of atoms/cell      =           10
     number of atomic types    =            3
     number of electrons       =        96.00
     number of Kohn-Sham states=           64
     kinetic-energy cutoff     =      60.0000  Ry
     charge density cutoff     =     480.0000  Ry
     scf convergence threshold =      1.0E-07
     mixing beta               =       0.3000
     number of iterations used =            8  local-TF  mixing
     Exchange-correlation= SLA  PW   PBX  PBC
                           (   1   4   3   4   0   0   0)

     GPU acceleration is ACTIVE.  1 visible GPUs per MPI rank
     GPU-aware MPI enabled


     GPU used by master process:

        Device Number: 0
        Device name: NVIDIA A100-SXM4-80GB
        Compute capability : 80
        Ratio of single to double precision performance  : 2
        Memory Clock Rate (KHz): 1593000
        Memory Bus Width (bits): 5120
        Peak Memory Bandwidth (GB/s): ******

     celldm(1)=   9.452718  celldm(2)=   0.000000  celldm(3)=   1.979144
     celldm(4)=   0.000000  celldm(5)=   0.000000  celldm(6)=   0.000000

     crystal axes: (cart. coord. in units of alat)
               a(1) = (   1.000000   0.000000   0.000000 )  
               a(2) = (  -0.500000   0.866025   0.000000 )  
               a(3) = (   0.000000   0.000000   1.979144 )  

     reciprocal axes: (cart. coord. in units 2 pi/alat)
               b(1) = (  1.000000  0.577350 -0.000000 )  
               b(2) = (  0.000000  1.154701  0.000000 )  
               b(3) = (  0.000000 -0.000000  0.505269 )  


     PseudoPot. # 1 for Co read from file:
     ../../pseudo/Co.pbe-spn-kjpaw_psl.0.3.1.UPF
     MD5 check sum: 3c0a43779828c046024e4f3be63f8e67
     Pseudo is Projector augmented-wave + core cor, Zval = 17.0
     Generated using &quot;atomic&quot; code by A. Dal Corso  v.6.2.2
     Shape of augmentation charge: PSQ
     Using radial grid of 1193 points,  6 beta functions with: 
                l(1) =   0
                l(2) =   0
                l(3) =   1
                l(4) =   1
                l(5) =   2
                l(6) =   2
     Q(r) pseudized with 0 coefficients 


     PseudoPot. # 2 for O  read from file:
     ../../pseudo/O.pbe-n-kjpaw_psl.1.0.0.UPF
     MD5 check sum: e99d9cef9b487d1ca56f5b95ecd0fd7a
     Pseudo is Projector augmented-wave + core cor, Zval =  6.0
     Generated using &quot;atomic&quot; code by A. Dal Corso  v.6.3
     Shape of augmentation charge: PSQ
     Using radial grid of 1095 points,  4 beta functions with: 
                l(1) =   0
                l(2) =   0
                l(3) =   1
                l(4) =   1
     Q(r) pseudized with 0 coefficients 


     PseudoPot. # 3 for Na read from file:
     ../../pseudo/Na.pbe-spn-kjpaw_psl.1.0.0.UPF
     MD5 check sum: 05b4deb74e3932c23ab016979dc8b5d4
     Pseudo is Projector augmented-wave + core cor, Zval =  9.0
     Generated using &quot;atomic&quot; code by A. Dal Corso  v.6.3
     Shape of augmentation charge: PSQ
     Using radial grid of 1121 points,  4 beta functions with: 
                l(1) =   0
                l(2) =   0
                l(3) =   1
                l(4) =   1
     Q(r) pseudized with 0 coefficients 


     atomic species   valence    mass     pseudopotential
     Co               17.00    58.93300     Co( 1.00)
     O                 6.00    15.99900     O ( 1.00)
     Na                9.00    22.98977     Na( 1.00)

     Starting magnetic structure 
     atomic species   magnetization
     Co              0.300
     O               0.000
     Na              0.000

     12 Sym. Ops., with inversion, found


                                    s                        frac. trans.

      isym =  1     identity                                     

 cryst.   s( 1) = (     1          0          0      )
                  (     0          1          0      )
                  (     0          0          1      )

 cart.    s( 1) = (  1.0000000  0.0000000  0.0000000 )
                  (  0.0000000  1.0000000  0.0000000 )
                  (  0.0000000  0.0000000  1.0000000 )


      isym =  2     180 deg rotation - cart. axis [0,1,0]        

 cryst.   s( 2) = (    -1          0          0      )
                  (     1          1          0      )
                  (     0          0         -1      )

 cart.    s( 2) = ( -1.0000000  0.0000000  0.0000000 )
                  (  0.0000000  1.0000000  0.0000000 )
                  (  0.0000000  0.0000000 -1.0000000 )


      isym =  3     120 deg rotation - cryst. axis [0,0,1]       

 cryst.   s( 3) = (     0          1          0      )
                  (    -1         -1          0      )
                  (     0          0          1      )

 cart.    s( 3) = ( -0.5000000 -0.8660254  0.0000000 )
                  (  0.8660254 -0.5000000  0.0000000 )
                  (  0.0000000  0.0000000  1.0000000 )


      isym =  4     120 deg rotation - cryst. axis [0,0,-1]      

 cryst.   s( 4) = (    -1         -1          0      )
                  (     1          0          0      )
                  (     0          0          1      )

 cart.    s( 4) = ( -0.5000000  0.8660254  0.0000000 )
                  ( -0.8660254 -0.5000000  0.0000000 )
                  (  0.0000000  0.0000000  1.0000000 )


      isym =  5     180 deg rotation - cryst. axis [1,-1,0]      

 cryst.   s( 5) = (     0         -1          0      )
                  (    -1          0          0      )
                  (     0          0         -1      )

 cart.    s( 5) = (  0.5000000 -0.8660254  0.0000000 )
                  ( -0.8660254 -0.5000000  0.0000000 )
                  (  0.0000000  0.0000000 -1.0000000 )


      isym =  6     180 deg rotation - cryst. axis [2,1,0]       

 cryst.   s( 6) = (     1          1          0      )
                  (     0         -1          0      )
                  (     0          0         -1      )

 cart.    s( 6) = (  0.5000000  0.8660254  0.0000000 )
                  (  0.8660254 -0.5000000  0.0000000 )
                  (  0.0000000  0.0000000 -1.0000000 )


      isym =  7     inversion                                    

 cryst.   s( 7) = (    -1          0          0      )
                  (     0         -1          0      )
                  (     0          0         -1      )

 cart.    s( 7) = ( -1.0000000  0.0000000  0.0000000 )
                  (  0.0000000 -1.0000000  0.0000000 )
                  (  0.0000000  0.0000000 -1.0000000 )


      isym =  8     inv. 180 deg rotation - cart. axis [0,1,0]   

 cryst.   s( 8) = (     1          0          0      )
                  (    -1         -1          0      )
                  (     0          0          1      )

 cart.    s( 8) = (  1.0000000  0.0000000  0.0000000 )
                  (  0.0000000 -1.0000000  0.0000000 )
                  (  0.0000000  0.0000000  1.0000000 )


      isym =  9     inv. 120 deg rotation - cryst. axis [0,0,1]  

 cryst.   s( 9) = (     0         -1          0      )
                  (     1          1          0      )
                  (     0          0         -1      )

 cart.    s( 9) = (  0.5000000  0.8660254  0.0000000 )
                  ( -0.8660254  0.5000000  0.0000000 )
                  (  0.0000000  0.0000000 -1.0000000 )


      isym = 10     inv. 120 deg rotation - cryst. axis [0,0,-1] 

 cryst.   s(10) = (     1          1          0      )
                  (    -1          0          0      )
                  (     0          0         -1      )

 cart.    s(10) = (  0.5000000 -0.8660254  0.0000000 )
                  (  0.8660254  0.5000000  0.0000000 )
                  (  0.0000000  0.0000000 -1.0000000 )


      isym = 11     inv. 180 deg rotation - cryst. axis [1,-1,0] 

 cryst.   s(11) = (     0          1          0      )
                  (     1          0          0      )
                  (     0          0          1      )

 cart.    s(11) = ( -0.5000000  0.8660254  0.0000000 )
                  (  0.8660254  0.5000000  0.0000000 )
                  (  0.0000000  0.0000000  1.0000000 )


      isym = 12     inv. 180 deg rotation - cryst. axis [2,1,0]  

 cryst.   s(12) = (    -1         -1          0      )
                  (     0          1          0      )
                  (     0          0          1      )

 cart.    s(12) = ( -0.5000000 -0.8660254  0.0000000 )
                  ( -0.8660254  0.5000000  0.0000000 )
                  (  0.0000000  0.0000000  1.0000000 )


     point group D_3d (-3m) 
     there are  6 classes
     the character table:

       E     2C3   3C2'  i     2S6   3s_d 
A_1g   1.00  1.00  1.00  1.00  1.00  1.00
A_2g   1.00  1.00 -1.00  1.00  1.00 -1.00
E_g    2.00 -1.00  0.00  2.00 -1.00  0.00
A_1u   1.00  1.00  1.00 -1.00 -1.00 -1.00
A_2u   1.00  1.00 -1.00 -1.00 -1.00  1.00
E_u    2.00 -1.00  0.00 -2.00  1.00  0.00

     the symmetry operations in each class and the name of the first element:

     E        1
          identity                                               
     2C3      3    4
          120 deg rotation - cryst. axis [0,0,1]                 
     3C2'     2    6    5
          180 deg rotation - cart. axis [0,1,0]                  
     i        7
          inversion                                              
     2S6      9   10
          inv. 120 deg rotation - cryst. axis [0,0,1]            
     3s_d     8   12   11
          inv. 180 deg rotation - cart. axis [0,1,0]             

   Cartesian axes

     site n.     atom                  positions (alat units)
         1        Co     tau(   1) = (   0.0000000   0.0000000   0.0000000  )
         2        Co     tau(   2) = (  -0.0000000   0.5773503   0.0000000  )
         3        Co     tau(   3) = (   0.5000000   0.2886751   0.0000000  )
         4        O      tau(   4) = (   0.1666667   0.2886751   0.1919170  )
         5        O      tau(   5) = (   0.6666667   0.0000000   0.1919170  )
         6        O      tau(   6) = (  -0.3333333   0.5773503   0.1919170  )
         7        O      tau(   7) = (   0.3333333   0.0000000   1.7872269  )
         8        O      tau(   8) = (   0.3333333   0.5773503   1.7872269  )
         9        O      tau(   9) = (  -0.1666667   0.2886751   1.7872269  )
        10        Na     tau(  10) = (   0.0000000   0.0000000   0.9895720  )

   Crystallographic axes

     site n.     atom                  positions (cryst. coord.)
         1        Co     tau(   1) = (  0.0000000  0.0000000  0.0000000  )
         2        Co     tau(   2) = (  0.3333333  0.6666667  0.0000000  )
         3        Co     tau(   3) = (  0.6666667  0.3333333  0.0000000  )
         4        O      tau(   4) = (  0.3333333  0.3333333  0.0969697  )
         5        O      tau(   5) = (  0.6666667  0.0000000  0.0969697  )
         6        O      tau(   6) = (  0.0000000  0.6666667  0.0969697  )
         7        O      tau(   7) = (  0.3333333  0.0000000  0.9030303  )
         8        O      tau(   8) = (  0.6666667  0.6666667  0.9030303  )
         9        O      tau(   9) = ( -0.0000000  0.3333333  0.9030303  )
        10        Na     tau(  10) = (  0.0000000  0.0000000  0.5000000  )

     number of k points=    17  Marzari-Vanderbilt smearing, width (Ry)=  0.0200
                       cart. coord. in units 2pi/alat
        k(    1) = (   0.0000000   0.0000000   0.0000000), wk =   0.0092593
        k(    2) = (   0.0000000   0.0000000   0.1684230), wk =   0.0185185
        k(    3) = (   0.0000000   0.1924501   0.0000000), wk =   0.0555556
        k(    4) = (   0.0000000   0.1924501   0.1684230), wk =   0.1111111
        k(    5) = (   0.0000000   0.3849002   0.0000000), wk =   0.0555556
        k(    6) = (   0.0000000   0.3849002   0.1684230), wk =   0.1111111
        k(    7) = (   0.0000000  -0.5773503   0.0000000), wk =   0.0277778
        k(    8) = (   0.0000000  -0.5773503   0.1684230), wk =   0.0555556
        k(    9) = (   0.1666667   0.2886751   0.0000000), wk =   0.0555556
        k(   10) = (   0.1666667   0.2886751   0.1684230), wk =   0.0555556
        k(   11) = (   0.1666667   0.4811252   0.0000000), wk =   0.1111111
        k(   12) = (   0.1666667   0.4811252   0.1684230), wk =   0.1111111
        k(   13) = (   0.3333333   0.5773503   0.0000000), wk =   0.0185185
        k(   14) = (   0.3333333   0.5773503   0.1684230), wk =   0.0185185
        k(   15) = (  -0.1666667  -0.2886751   0.1684230), wk =   0.0555556
        k(   16) = (  -0.1666667  -0.4811252   0.1684230), wk =   0.1111111
        k(   17) = (  -0.3333333  -0.5773503   0.1684230), wk =   0.0185185

                       cryst. coord.
        k(    1) = (   0.0000000   0.0000000   0.0000000), wk =   0.0092593
        k(    2) = (   0.0000000   0.0000000   0.3333333), wk =   0.0185185
        k(    3) = (   0.0000000   0.1666667   0.0000000), wk =   0.0555556
        k(    4) = (   0.0000000   0.1666667   0.3333333), wk =   0.1111111
        k(    5) = (   0.0000000   0.3333333   0.0000000), wk =   0.0555556
        k(    6) = (   0.0000000   0.3333333   0.3333333), wk =   0.1111111
        k(    7) = (   0.0000000  -0.5000000   0.0000000), wk =   0.0277778
        k(    8) = (   0.0000000  -0.5000000   0.3333333), wk =   0.0555556
        k(    9) = (   0.1666667   0.1666667   0.0000000), wk =   0.0555556
        k(   10) = (   0.1666667   0.1666667   0.3333333), wk =   0.0555556
        k(   11) = (   0.1666667   0.3333333   0.0000000), wk =   0.1111111
        k(   12) = (   0.1666667   0.3333333   0.3333333), wk =   0.1111111
        k(   13) = (   0.3333333   0.3333333   0.0000000), wk =   0.0185185
        k(   14) = (   0.3333333   0.3333333   0.3333333), wk =   0.0185185
        k(   15) = (  -0.1666667  -0.1666667   0.3333333), wk =   0.0555556
        k(   16) = (  -0.1666667  -0.3333333   0.3333333), wk =   0.1111111
        k(   17) = (  -0.3333333  -0.3333333   0.3333333), wk =   0.0185185

     Dense  grid:   256907 G-vectors     FFT dimensions: (  72,  72, 135)

     Smooth grid:    90927 G-vectors     FFT dimensions: (  48,  48,  96)

     Dynamical RAM for                 wfc:      11.10 MB

     Dynamical RAM for     wfc (w. buffer):     388.35 MB

     Dynamical RAM for           str. fact:      11.76 MB

     Dynamical RAM for           local pot:       0.00 MB

     Dynamical RAM for          nlocal pot:      19.07 MB

     Dynamical RAM for                qrad:       5.27 MB

     Dynamical RAM for          rho,v,vnew:      55.56 MB

     Dynamical RAM for               rhoin:      18.52 MB

     Dynamical RAM for            rho*nmix:     125.44 MB

     Dynamical RAM for           G-vectors:      15.39 MB

     Dynamical RAM for          h,s,v(r/c):       0.75 MB

     Dynamical RAM for          <psi|beta>:       0.11 MB

     Dynamical RAM for                 psi:      22.19 MB

     Dynamical RAM for                hpsi:      22.19 MB

     Dynamical RAM for                spsi:      22.19 MB

     Dynamical RAM for      wfcinit/wfcrot:      22.29 MB

     Dynamical RAM for           addusdens:     756.58 MB

     Dynamical RAM for          addusforce:     795.83 MB

     Estimated static dynamical RAM per process >     561.64 MB

     Estimated max dynamical RAM per process >       1.45 GB

     Check: negative core charge=   -0.000006
     Generating pointlists ...
     new r_m :   0.1587 (alat units)  1.4998 (a.u.) for type    1
     new r_m :   0.1587 (alat units)  1.4998 (a.u.) for type    2
     new r_m :   0.3566 (alat units)  3.3709 (a.u.) for type    3

     Initial potential from superposition of free atoms

     starting charge      95.9928, renormalised to      96.0000
     Starting wfcs are   59 randomized atomic wfcs +    5 random wfcs
     Checking if some PAW data can be deallocated... 

     total cpu time spent up to now is        5.6 secs

     Self-consistent Calculation
[tb_dev] Currently allocated     9.94E-01 Mbytes, locked:    0 /   6
[tb_pin] Currently allocated     0.00E+00 Mbytes, locked:    0 /   0

     iteration #  1     ecut=    60.00 Ry     beta= 0.30
     Davidson diagonalization with overlap

---- Real-time Memory Report at c_bands before calling an iterative solver
          1139 MiB given to the printing process from OS
             0 MiB allocation reported by mallinfo(arena+hblkhd)
        843138 MiB available memory on the node where the printing process lives
     GPU memory used/free/total (MiB): 1984 / 79166 / 81151
------------------
     ethr =  1.00E-02,  avg # of iterations = 10.6

     total cpu time spent up to now is        9.7 secs

     total energy              =   -1488.23264227 Ry
     estimated scf accuracy    <       6.36977463 Ry

     total magnetization       =    14.00 Bohr mag/cell
     absolute magnetization    =    14.00 Bohr mag/cell
[tb_dev] Currently allocated     7.63E-05 Mbytes, locked:    0 /   2
[tb_pin] Currently allocated     0.00E+00 Mbytes, locked:    0 /   0

     iteration #  2     ecut=    60.00 Ry     beta= 0.30
     Davidson diagonalization with overlap

---- Real-time Memory Report at c_bands before calling an iterative solver
          1204 MiB given to the printing process from OS
             0 MiB allocation reported by mallinfo(arena+hblkhd)
        843497 MiB available memory on the node where the printing process lives
     GPU memory used/free/total (MiB): 2072 / 79078 / 81151
------------------
     ethr =  6.64E-03,  avg # of iterations =  2.0

     total cpu time spent up to now is       12.5 secs

     total energy              =   -1488.62431644 Ry
     estimated scf accuracy    <       1.14029226 Ry

     total magnetization       =    10.39 Bohr mag/cell
     absolute magnetization    =    10.39 Bohr mag/cell
[tb_dev] Currently allocated     7.63E-05 Mbytes, locked:    0 /   2
[tb_pin] Currently allocated     0.00E+00 Mbytes, locked:    0 /   0

     iteration #  3     ecut=    60.00 Ry     beta= 0.30
     Davidson diagonalization with overlap

---- Real-time Memory Report at c_bands before calling an iterative solver
          1214 MiB given to the printing process from OS
             0 MiB allocation reported by mallinfo(arena+hblkhd)
        843071 MiB available memory on the node where the printing process lives
     GPU memory used/free/total (MiB): 2072 / 79078 / 81151
------------------
     ethr =  1.19E-03,  avg # of iterations =  4.0

     total cpu time spent up to now is       15.6 secs

     total energy              =   -1488.92014192 Ry
     estimated scf accuracy    <       2.27107641 Ry

     total magnetization       =     4.21 Bohr mag/cell
     absolute magnetization    =     4.94 Bohr mag/cell
[tb_dev] Currently allocated     7.63E-05 Mbytes, locked:    0 /   2
[tb_pin] Currently allocated     0.00E+00 Mbytes, locked:    0 /   0

     iteration #  4     ecut=    60.00 Ry     beta= 0.30
     Davidson diagonalization with overlap

---- Real-time Memory Report at c_bands before calling an iterative solver
          1223 MiB given to the printing process from OS
             0 MiB allocation reported by mallinfo(arena+hblkhd)
        842944 MiB available memory on the node where the printing process lives
     GPU memory used/free/total (MiB): 2072 / 79078 / 81151
------------------
     ethr =  1.19E-03,  avg # of iterations =  1.8

     total cpu time spent up to now is       18.3 secs

     total energy              =   -1488.98397620 Ry
     estimated scf accuracy    <       1.58441863 Ry

     total magnetization       =     4.85 Bohr mag/cell
     absolute magnetization    =     5.38 Bohr mag/cell
[tb_dev] Currently allocated     7.63E-05 Mbytes, locked:    0 /   2
[tb_pin] Currently allocated     0.00E+00 Mbytes, locked:    0 /   0

     iteration #  5     ecut=    60.00 Ry     beta= 0.30
     Davidson diagonalization with overlap

---- Real-time Memory Report at c_bands before calling an iterative solver
          1242 MiB given to the printing process from OS
             0 MiB allocation reported by mallinfo(arena+hblkhd)
        844087 MiB available memory on the node where the printing process lives
     GPU memory used/free/total (MiB): 2072 / 79078 / 81151
------------------
     ethr =  1.19E-03,  avg # of iterations =  1.5

     total cpu time spent up to now is       21.0 secs

     total energy              =   -1489.10355588 Ry
     estimated scf accuracy    <       0.69173684 Ry

     total magnetization       =     3.87 Bohr mag/cell
     absolute magnetization    =     4.83 Bohr mag/cell
[tb_dev] Currently allocated     7.63E-05 Mbytes, locked:    0 /   2
[tb_pin] Currently allocated     0.00E+00 Mbytes, locked:    0 /   0

     iteration #  6     ecut=    60.00 Ry     beta= 0.30
     Davidson diagonalization with overlap

---- Real-time Memory Report at c_bands before calling an iterative solver
          1253 MiB given to the printing process from OS
             0 MiB allocation reported by mallinfo(arena+hblkhd)
        843271 MiB available memory on the node where the printing process lives
     GPU memory used/free/total (MiB): 2072 / 79078 / 81151
------------------
     ethr =  7.21E-04,  avg # of iterations =  2.8

     total cpu time spent up to now is       23.8 secs

     total energy              =   -1489.06377725 Ry
     estimated scf accuracy    <       0.78566005 Ry

     total magnetization       =     2.23 Bohr mag/cell
     absolute magnetization    =     3.81 Bohr mag/cell
[tb_dev] Currently allocated     7.63E-05 Mbytes, locked:    0 /   2
[tb_pin] Currently allocated     0.00E+00 Mbytes, locked:    0 /   0

     iteration #  7     ecut=    60.00 Ry     beta= 0.30
     Davidson diagonalization with overlap

---- Real-time Memory Report at c_bands before calling an iterative solver
          1259 MiB given to the printing process from OS
             0 MiB allocation reported by mallinfo(arena+hblkhd)
        842839 MiB available memory on the node where the printing process lives
     GPU memory used/free/total (MiB): 2072 / 79078 / 81151
------------------
     ethr =  7.21E-04,  avg # of iterations =  6.8

     total cpu time spent up to now is       27.3 secs

     total energy              =   -1489.15616846 Ry
     estimated scf accuracy    <       0.70950036 Ry

     total magnetization       =    -0.53 Bohr mag/cell
     absolute magnetization    =     0.77 Bohr mag/cell
[tb_dev] Currently allocated     7.63E-05 Mbytes, locked:    0 /   2
[tb_pin] Currently allocated     0.00E+00 Mbytes, locked:    0 /   0

     iteration #  8     ecut=    60.00 Ry     beta= 0.30
     Davidson diagonalization with overlap

---- Real-time Memory Report at c_bands before calling an iterative solver
          1265 MiB given to the printing process from OS
             0 MiB allocation reported by mallinfo(arena+hblkhd)
        842095 MiB available memory on the node where the printing process lives
     GPU memory used/free/total (MiB): 2072 / 79078 / 81151
------------------
     ethr =  7.21E-04,  avg # of iterations =  1.2

     total cpu time spent up to now is       29.9 secs

     total energy              =   -1489.16461025 Ry
     estimated scf accuracy    <       0.35069762 Ry

     total magnetization       =     1.12 Bohr mag/cell
     absolute magnetization    =     1.43 Bohr mag/cell
[tb_dev] Currently allocated     7.63E-05 Mbytes, locked:    0 /   2
[tb_pin] Currently allocated     0.00E+00 Mbytes, locked:    0 /   0

     iteration #  9     ecut=    60.00 Ry     beta= 0.30
     Davidson diagonalization with overlap

---- Real-time Memory Report at c_bands before calling an iterative solver
          1270 MiB given to the printing process from OS
             0 MiB allocation reported by mallinfo(arena+hblkhd)
        842087 MiB available memory on the node where the printing process lives
     GPU memory used/free/total (MiB): 2072 / 79078 / 81151
------------------
     c_bands:  2 eigenvalues not converged
     ethr =  3.65E-04,  avg # of iterations =  3.1

     total cpu time spent up to now is       32.8 secs

     total energy              =   -1489.07066056 Ry
     estimated scf accuracy    <       0.22948821 Ry

     total magnetization       =     2.14 Bohr mag/cell
     absolute magnetization    =     2.21 Bohr mag/cell
[tb_dev] Currently allocated     7.63E-05 Mbytes, locked:    0 /   2
[tb_pin] Currently allocated     0.00E+00 Mbytes, locked:    0 /   0

     iteration # 10     ecut=    60.00 Ry     beta= 0.30
     Davidson diagonalization with overlap

---- Real-time Memory Report at c_bands before calling an iterative solver
          1276 MiB given to the printing process from OS
             0 MiB allocation reported by mallinfo(arena+hblkhd)
        842029 MiB available memory on the node where the printing process lives
     GPU memory used/free/total (MiB): 2072 / 79078 / 81151
------------------
     c_bands:  2 eigenvalues not converged
     ethr =  2.39E-04,  avg # of iterations =  9.8

     total cpu time spent up to now is       36.8 secs

     total energy              =   -1489.03684697 Ry
     estimated scf accuracy    <       0.87726045 Ry

     total magnetization       =     3.31 Bohr mag/cell
     absolute magnetization    =     3.34 Bohr mag/cell
[tb_dev] Currently allocated     7.63E-05 Mbytes, locked:    0 /   2
[tb_pin] Currently allocated     0.00E+00 Mbytes, locked:    0 /   0

     iteration # 11     ecut=    60.00 Ry     beta= 0.30
     Davidson diagonalization with overlap

---- Real-time Memory Report at c_bands before calling an iterative solver
          1281 MiB given to the printing process from OS
             0 MiB allocation reported by mallinfo(arena+hblkhd)
        841971 MiB available memory on the node where the printing process lives
     GPU memory used/free/total (MiB): 2072 / 79078 / 81151
------------------
     ethr =  2.39E-04,  avg # of iterations =  1.9

     total cpu time spent up to now is       39.5 secs

     total energy              =   -1489.13935926 Ry
     estimated scf accuracy    <       0.12305337 Ry

     total magnetization       =     2.13 Bohr mag/cell
     absolute magnetization    =     2.20 Bohr mag/cell
[tb_dev] Currently allocated     7.63E-05 Mbytes, locked:    0 /   2
[tb_pin] Currently allocated     0.00E+00 Mbytes, locked:    0 /   0

     iteration # 12     ecut=    60.00 Ry     beta= 0.30
     Davidson diagonalization with overlap

---- Real-time Memory Report at c_bands before calling an iterative solver
          1282 MiB given to the printing process from OS
             0 MiB allocation reported by mallinfo(arena+hblkhd)
        841962 MiB available memory on the node where the printing process lives
     GPU memory used/free/total (MiB): 2072 / 79078 / 81151
------------------
     ethr =  1.28E-04,  avg # of iterations =  1.5

     total cpu time spent up to now is       42.1 secs

     total energy              =   -1489.13901086 Ry
     estimated scf accuracy    <       0.03678943 Ry

     total magnetization       =     2.37 Bohr mag/cell
     absolute magnetization    =     2.41 Bohr mag/cell
[tb_dev] Currently allocated     7.63E-05 Mbytes, locked:    0 /   2
[tb_pin] Currently allocated     0.00E+00 Mbytes, locked:    0 /   0

     iteration # 13     ecut=    60.00 Ry     beta= 0.30
     Davidson diagonalization with overlap

---- Real-time Memory Report at c_bands before calling an iterative solver
          1282 MiB given to the printing process from OS
             0 MiB allocation reported by mallinfo(arena+hblkhd)
        841921 MiB available memory on the node where the printing process lives
     GPU memory used/free/total (MiB): 2072 / 79078 / 81151
------------------
     c_bands:  2 eigenvalues not converged
     c_bands:  1 eigenvalues not converged
     ethr =  3.83E-05,  avg # of iterations =  6.3

     total cpu time spent up to now is       45.5 secs

     total energy              =   -1489.13687514 Ry
     estimated scf accuracy    <       0.01645645 Ry

     total magnetization       =     2.28 Bohr mag/cell
     absolute magnetization    =     2.38 Bohr mag/cell
[tb_dev] Currently allocated     7.63E-05 Mbytes, locked:    0 /   2
[tb_pin] Currently allocated     0.00E+00 Mbytes, locked:    0 /   0

     iteration # 14     ecut=    60.00 Ry     beta= 0.30
     Davidson diagonalization with overlap

---- Real-time Memory Report at c_bands before calling an iterative solver
          1282 MiB given to the printing process from OS
             0 MiB allocation reported by mallinfo(arena+hblkhd)
        841897 MiB available memory on the node where the printing process lives
     GPU memory used/free/total (MiB): 2072 / 79078 / 81151
------------------
     ethr =  1.71E-05,  avg # of iterations =  5.9

     total cpu time spent up to now is       48.7 secs

     total energy              =   -1489.14008134 Ry
     estimated scf accuracy    <       0.01061679 Ry

     total magnetization       =     2.62 Bohr mag/cell
     absolute magnetization    =     2.71 Bohr mag/cell
[tb_dev] Currently allocated     7.63E-05 Mbytes, locked:    0 /   2
[tb_pin] Currently allocated     0.00E+00 Mbytes, locked:    0 /   0

     iteration # 15     ecut=    60.00 Ry     beta= 0.30
     Davidson diagonalization with overlap

---- Real-time Memory Report at c_bands before calling an iterative solver
          1282 MiB given to the printing process from OS
             0 MiB allocation reported by mallinfo(arena+hblkhd)
        841869 MiB available memory on the node where the printing process lives
     GPU memory used/free/total (MiB): 2072 / 79078 / 81151
------------------
     c_bands:  3 eigenvalues not converged
     c_bands:  2 eigenvalues not converged
     c_bands:  1 eigenvalues not converged
     ethr =  1.11E-05,  avg # of iterations =  4.2

     total cpu time spent up to now is       51.8 secs

     total energy              =   -1489.13868387 Ry
     estimated scf accuracy    <       0.00776712 Ry

     total magnetization       =     2.63 Bohr mag/cell
     absolute magnetization    =     2.72 Bohr mag/cell
[tb_dev] Currently allocated     7.63E-05 Mbytes, locked:    0 /   2
[tb_pin] Currently allocated     0.00E+00 Mbytes, locked:    0 /   0

     iteration # 16     ecut=    60.00 Ry     beta= 0.30
     Davidson diagonalization with overlap

---- Real-time Memory Report at c_bands before calling an iterative solver
          1285 MiB given to the printing process from OS
             0 MiB allocation reported by mallinfo(arena+hblkhd)
        841886 MiB available memory on the node where the printing process lives
     GPU memory used/free/total (MiB): 2072 / 79078 / 81151
------------------
     ethr =  8.09E-06,  avg # of iterations =  3.5

     total cpu time spent up to now is       54.8 secs

     total energy              =   -1489.13997688 Ry
     estimated scf accuracy    <       0.00357332 Ry

     total magnetization       =     2.46 Bohr mag/cell
     absolute magnetization    =     2.56 Bohr mag/cell
[tb_dev] Currently allocated     7.63E-05 Mbytes, locked:    0 /   2
[tb_pin] Currently allocated     0.00E+00 Mbytes, locked:    0 /   0

     iteration # 17     ecut=    60.00 Ry     beta= 0.30
     Davidson diagonalization with overlap

---- Real-time Memory Report at c_bands before calling an iterative solver
          1285 MiB given to the printing process from OS
             0 MiB allocation reported by mallinfo(arena+hblkhd)
        841910 MiB available memory on the node where the printing process lives
     GPU memory used/free/total (MiB): 2072 / 79078 / 81151
------------------
     ethr =  3.72E-06,  avg # of iterations =  3.9

     total cpu time spent up to now is       57.7 secs

     total energy              =   -1489.13965221 Ry
     estimated scf accuracy    <       0.00184656 Ry

     total magnetization       =     2.50 Bohr mag/cell
     absolute magnetization    =     2.61 Bohr mag/cell
[tb_dev] Currently allocated     7.63E-05 Mbytes, locked:    0 /   2
[tb_pin] Currently allocated     0.00E+00 Mbytes, locked:    0 /   0

     iteration # 18     ecut=    60.00 Ry     beta= 0.30
     Davidson diagonalization with overlap

---- Real-time Memory Report at c_bands before calling an iterative solver
          1285 MiB given to the printing process from OS
             0 MiB allocation reported by mallinfo(arena+hblkhd)
        841948 MiB available memory on the node where the printing process lives
     GPU memory used/free/total (MiB): 2072 / 79078 / 81151
------------------
     c_bands:  1 eigenvalues not converged
     ethr =  1.92E-06,  avg # of iterations =  9.1

     total cpu time spent up to now is       61.5 secs

     total energy              =   -1489.14009410 Ry
     estimated scf accuracy    <       0.00118952 Ry

     total magnetization       =     2.56 Bohr mag/cell
     absolute magnetization    =     2.68 Bohr mag/cell
[tb_dev] Currently allocated     7.63E-05 Mbytes, locked:    0 /   2
[tb_pin] Currently allocated     0.00E+00 Mbytes, locked:    0 /   0

     iteration # 19     ecut=    60.00 Ry     beta= 0.30
     Davidson diagonalization with overlap

---- Real-time Memory Report at c_bands before calling an iterative solver
          1285 MiB given to the printing process from OS
             0 MiB allocation reported by mallinfo(arena+hblkhd)
        841928 MiB available memory on the node where the printing process lives
     GPU memory used/free/total (MiB): 2072 / 79078 / 81151
------------------
     ethr =  1.24E-06,  avg # of iterations =  2.6

     total cpu time spent up to now is       64.4 secs

     total energy              =   -1489.14014087 Ry
     estimated scf accuracy    <       0.00018824 Ry

     total magnetization       =     2.55 Bohr mag/cell
     absolute magnetization    =     2.66 Bohr mag/cell
[tb_dev] Currently allocated     7.63E-05 Mbytes, locked:    0 /   2
[tb_pin] Currently allocated     0.00E+00 Mbytes, locked:    0 /   0

     iteration # 20     ecut=    60.00 Ry     beta= 0.30
     Davidson diagonalization with overlap

---- Real-time Memory Report at c_bands before calling an iterative solver
          1286 MiB given to the printing process from OS
             0 MiB allocation reported by mallinfo(arena+hblkhd)
        841876 MiB available memory on the node where the printing process lives
     GPU memory used/free/total (MiB): 2072 / 79078 / 81151
------------------
     ethr =  1.96E-07,  avg # of iterations =  7.6

     total cpu time spent up to now is       68.0 secs

     total energy              =   -1489.14022599 Ry
     estimated scf accuracy    <       0.00005766 Ry

     total magnetization       =     2.52 Bohr mag/cell
     absolute magnetization    =     2.64 Bohr mag/cell
[tb_dev] Currently allocated     7.63E-05 Mbytes, locked:    0 /   2
[tb_pin] Currently allocated     0.00E+00 Mbytes, locked:    0 /   0

     iteration # 21     ecut=    60.00 Ry     beta= 0.30
     Davidson diagonalization with overlap

---- Real-time Memory Report at c_bands before calling an iterative solver
          1286 MiB given to the printing process from OS
             0 MiB allocation reported by mallinfo(arena+hblkhd)
        841873 MiB available memory on the node where the printing process lives
     GPU memory used/free/total (MiB): 2072 / 79078 / 81151
------------------
     ethr =  6.01E-08,  avg # of iterations =  3.9

     total cpu time spent up to now is       71.0 secs

     total energy              =   -1489.14023677 Ry
     estimated scf accuracy    <       0.00000175 Ry

     total magnetization       =     2.53 Bohr mag/cell
     absolute magnetization    =     2.65 Bohr mag/cell
[tb_dev] Currently allocated     7.63E-05 Mbytes, locked:    0 /   2
[tb_pin] Currently allocated     0.00E+00 Mbytes, locked:    0 /   0

     iteration # 22     ecut=    60.00 Ry     beta= 0.30
     Davidson diagonalization with overlap

---- Real-time Memory Report at c_bands before calling an iterative solver
          1287 MiB given to the printing process from OS
             0 MiB allocation reported by mallinfo(arena+hblkhd)
        841873 MiB available memory on the node where the printing process lives
     GPU memory used/free/total (MiB): 2072 / 79078 / 81151
------------------
     ethr =  1.83E-09,  avg # of iterations = 11.1

     total cpu time spent up to now is       75.4 secs

     total energy              =   -1489.14023983 Ry
     estimated scf accuracy    <       0.00000048 Ry

     total magnetization       =     2.53 Bohr mag/cell
     absolute magnetization    =     2.65 Bohr mag/cell
[tb_dev] Currently allocated     7.63E-05 Mbytes, locked:    0 /   2
[tb_pin] Currently allocated     0.00E+00 Mbytes, locked:    0 /   0

     iteration # 23     ecut=    60.00 Ry     beta= 0.30
     Davidson diagonalization with overlap

---- Real-time Memory Report at c_bands before calling an iterative solver
          1287 MiB given to the printing process from OS
             0 MiB allocation reported by mallinfo(arena+hblkhd)
        841895 MiB available memory on the node where the printing process lives
     GPU memory used/free/total (MiB): 2072 / 79078 / 81151
------------------
     ethr =  5.01E-10,  avg # of iterations =  4.1

     total cpu time spent up to now is       78.5 secs

     total energy              =   -1489.14023998 Ry
     estimated scf accuracy    <       0.00000026 Ry

     total magnetization       =     2.53 Bohr mag/cell
     absolute magnetization    =     2.65 Bohr mag/cell
[tb_dev] Currently allocated     7.63E-05 Mbytes, locked:    0 /   2
[tb_pin] Currently allocated     0.00E+00 Mbytes, locked:    0 /   0

     iteration # 24     ecut=    60.00 Ry     beta= 0.30
     Davidson diagonalization with overlap

---- Real-time Memory Report at c_bands before calling an iterative solver
          1287 MiB given to the printing process from OS
             0 MiB allocation reported by mallinfo(arena+hblkhd)
        841915 MiB available memory on the node where the printing process lives
     GPU memory used/free/total (MiB): 2072 / 79078 / 81151
------------------
     ethr =  2.69E-10,  avg # of iterations =  4.7
 
     Magnetic moment per site  (integrated on atomic sphere of radius R)
     atom   1 (R=0.159)  charge= 14.0891  magn=  0.6537
     atom   2 (R=0.159)  charge= 14.0883  magn=  0.6519
     atom   3 (R=0.159)  charge= 14.0883  magn=  0.6519
     atom   4 (R=0.159)  charge=  5.2118  magn=  0.0697
     atom   5 (R=0.159)  charge=  5.2118  magn=  0.0697
     atom   6 (R=0.159)  charge=  5.2118  magn=  0.0697
     atom   7 (R=0.159)  charge=  5.2118  magn=  0.0697
     atom   8 (R=0.159)  charge=  5.2118  magn=  0.0697
     atom   9 (R=0.159)  charge=  5.2118  magn=  0.0697
     atom  10 (R=0.357)  charge=  8.1872  magn= -0.0214

     total cpu time spent up to now is       81.8 secs

     End of self-consistent calculation

 ------ SPIN UP ------------


          k = 0.0000 0.0000 0.0000 ( 11393 PWs)   bands (ev):

   -93.5227 -93.5172 -93.5171 -56.7697 -56.7697 -56.7688 -56.7688 -56.7309
   -56.7309 -56.7230 -56.7144 -56.7136 -52.2255 -24.1425 -24.1425 -24.1036
   -16.8429 -15.1681 -15.1681 -15.1679 -15.1679 -14.9190  -3.0577  -2.9221
    -2.9221  -2.9179  -2.9179  -2.7121  -2.7121  -2.4847  -2.4771  -0.9120
    -0.9120  -0.9090  -0.9090  -0.4970  -0.4882   0.4790   0.7061   0.7061
     0.7250   0.7260   1.0503   1.0503   1.7938   1.7938   1.7964   1.7964
     1.8501   2.2455   3.9522   3.9522   3.9562   3.9562   4.6924   4.6924
     5.9526   8.4799   9.1799   9.1799   9.9644   9.9644  10.5109  10.8151

     occupation numbers 
     1.0000   1.0000   1.0000   1.0000   1.0000   1.0000   1.0000   1.0000
     1.0000   1.0000   1.0000   1.0000   1.0000   1.0000   1.0000   1.0000
     1.0000   1.0000   1.0000   1.0000   1.0000   1.0000   1.0000   1.0000
     1.0000   1.0000   1.0000   1.0000   1.0000   1.0000   1.0000   1.0000
     1.0000   1.0000   1.0000   1.0000   1.0000   1.0000   1.0000   1.0000
     1.0000   1.0000   1.0000   1.0000   1.0144   1.0144   1.0148   1.0148
     1.0260   0.9173   0.0000   0.0000   0.0000   0.0000   0.0000   0.0000
     0.0000   0.0000   0.0000   0.0000   0.0000   0.0000   0.0000   0.0000

          k = 0.0000 0.0000 0.1684 ( 11332 PWs)   bands (ev):

   -93.5227 -93.5172 -93.5171 -56.7696 -56.7696 -56.7688 -56.7688 -56.7309
   -56.7309 -56.7230 -56.7143 -56.7135 -52.2254 -24.1424 -24.1424 -24.1034
   -16.8429 -15.1681 -15.1681 -15.1679 -15.1679 -14.9190  -3.0560  -2.9220
    -2.9220  -2.9178  -2.9178  -2.7121  -2.7121  -2.4846  -2.4770  -0.9120
    -0.9120  -0.9090  -0.9090  -0.4970  -0.4882   0.4404   0.7061   0.7061
     0.7251   0.7260   1.0503   1.0503   1.7938   1.7938   1.7964   1.7964
     1.9730   2.1929   3.9525   3.9525   3.9565   3.9565   4.6924   4.6924
     5.7680   9.0395   9.1737   9.1737   9.9578   9.9578  10.4317  10.8139

     occupation numbers 
     1.0000   1.0000   1.0000   1.0000   1.0000   1.0000   1.0000   1.0000
     1.0000   1.0000   1.0000   1.0000   1.0000   1.0000   1.0000   1.0000
     1.0000   1.0000   1.0000   1.0000   1.0000   1.0000   1.0000   1.0000
     1.0000   1.0000   1.0000   1.0000   1.0000   1.0000   1.0000   1.0000
     1.0000   1.0000   1.0000   1.0000   1.0000   1.0000   1.0000   1.0000
     1.0000   1.0000   1.0000   1.0000   1.0144   1.0144   1.0148   1.0148
     1.0650   1.0047   0.0000   0.0000   0.0000   0.0000   0.0000   0.0000
     0.0000   0.0000   0.0000   0.0000   0.0000   0.0000   0.0000   0.0000

          k = 0.0000 0.1925 0.0000 ( 11360 PWs)   bands (ev):

   -93.5223 -93.5175 -93.5173 -56.7779 -56.7755 -56.7594 -56.7582 -56.7357
   -56.7321 -56.7222 -56.7147 -56.7139 -52.2255 -24.1426 -24.1425 -24.1034
   -16.7399 -15.3189 -15.2313 -15.1572 -15.0960 -14.9235  -3.3393  -3.0794
    -2.9396  -2.9300  -2.8092  -2.8047  -2.6427  -2.1214  -1.9287  -1.2280
    -1.1703  -1.0355  -0.9641  -0.1919  -0.1272   0.1425   0.2209   0.7166
     0.8071   0.8741   1.1683   1.4001   1.5324   1.5454   1.8931   1.9638
     1.9664   2.4099   3.9489   3.9714   3.9929   4.0533   4.4091   4.6213
     6.1590   7.4883   8.4851   8.7920   9.2005  10.8334  11.0703  11.6558

     occupation numbers 
     1.0000   1.0000   1.0000   1.0000   1.0000   1.0000   1.0000   1.0000
     1.0000   1.0000   1.0000   1.0000   1.0000   1.0000   1.0000   1.0000
     1.0000   1.0000   1.0000   1.0000   1.0000   1.0000   1.0000   1.0000
     1.0000   1.0000   1.0000   1.0000   1.0000   1.0000   1.0000   1.0000
     1.0000   1.0000   1.0000   1.0000   1.0000   1.0000   1.0000   1.0000
     1.0000   1.0000   1.0000   1.0000   1.0003   1.0003   1.0382   1.0620
     1.0629   0.4977   0.0000   0.0000   0.0000   0.0000   0.0000   0.0000
     0.0000   0.0000   0.0000   0.0000   0.0000   0.0000   0.0000   0.0000

          k = 0.0000 0.1925 0.1684 ( 11375 PWs)   bands (ev):

   -93.5223 -93.5175 -93.5173 -56.7778 -56.7755 -56.7594 -56.7582 -56.7358
   -56.7321 -56.7224 -56.7147 -56.7139 -52.2255 -24.1426 -24.1425 -24.1035
   -16.7399 -15.3189 -15.2313 -15.1572 -15.0960 -14.9235  -3.3393  -3.0794
    -2.9382  -2.9300  -2.8094  -2.8047  -2.6427  -2.1214  -1.9287  -1.2281
    -1.1704  -1.0354  -0.9640  -0.1919  -0.1272   0.1426   0.2194   0.6847
     0.8071   0.8741   1.1683   1.3984   1.5325   1.5455   1.8930   1.9662
     2.0527   2.3790   3.9499   3.9716   3.9927   4.0537   4.4197   4.6198
     5.9964   7.4816   8.4791   9.0880   9.4164  10.7731  11.0580  11.0889

     occupation numbers 
     1.0000   1.0000   1.0000   1.0000   1.0000   1.0000   1.0000   1.0000
     1.0000   1.0000   1.0000   1.0000   1.0000   1.0000   1.0000   1.0000
     1.0000   1.0000   1.0000   1.0000   1.0000   1.0000   1.0000   1.0000
     1.0000   1.0000   1.0000   1.0000   1.0000   1.0000   1.0000   1.0000
     1.0000   1.0000   1.0000   1.0000   1.0000   1.0000   1.0000   1.0000
     1.0000   1.0000   1.0000   1.0000   1.0003   1.0003   1.0381   1.0628
     1.0830   0.5826   0.0000   0.0000   0.0000   0.0000   0.0000   0.0000
     0.0000   0.0000   0.0000   0.0000   0.0000   0.0000   0.0000   0.0000

          k = 0.0000 0.3849 0.0000 ( 11350 PWs)   bands (ev):

   -93.5211 -93.5183 -93.5176 -56.7839 -56.7731 -56.7498 -56.7485 -56.7477
   -56.7357 -56.7204 -56.7158 -56.7146 -52.2254 -24.1428 -24.1426 -24.1034
   -16.4535 -15.6344 -15.2747 -15.2030 -15.0277 -14.9398  -3.7543  -2.9692
    -2.9627  -2.9169  -2.6255  -2.5367  -2.4758  -1.9447  -1.6749  -1.3338
    -1.3230  -1.2460  -0.8086  -0.8008  -0.3840   0.1095   0.4462   0.9068
     1.0426   1.2108   1.2579   1.2632   1.3510   1.7383   1.7445   2.0268
     2.0337   2.9690   3.9153   3.9259   3.9762   3.9912   4.3736   4.4163
     5.6195   6.7289   7.8957   8.4977   9.1381   9.6839  11.5058  11.6617

     occupation numbers 
     1.0000   1.0000   1.0000   1.0000   1.0000   1.0000   1.0000   1.0000
     1.0000   1.0000   1.0000   1.0000   1.0000   1.0000   1.0000   1.0000
     1.0000   1.0000   1.0000   1.0000   1.0000   1.0000   1.0000   1.0000
     1.0000   1.0000   1.0000   1.0000   1.0000   1.0000   1.0000   1.0000
     1.0000   1.0000   1.0000   1.0000   1.0000   1.0000   1.0000   1.0000
     1.0000   1.0000   1.0000   1.0000   1.0000   1.0073   1.0079   1.0797
     1.0809   0.0005   0.0000   0.0000   0.0000   0.0000   0.0000   0.0000
     0.0000   0.0000   0.0000   0.0000   0.0000   0.0000   0.0000   0.0000

          k = 0.0000 0.3849 0.1684 ( 11369 PWs)   bands (ev):

   -93.5211 -93.5183 -93.5176 -56.7838 -56.7731 -56.7499 -56.7485 -56.7477
   -56.7357 -56.7204 -56.7159 -56.7146 -52.2255 -24.1428 -24.1426 -24.1035
   -16.4535 -15.6344 -15.2747 -15.2030 -15.0277 -14.9399  -3.7542  -2.9696
    -2.9628  -2.9169  -2.6245  -2.5367  -2.4758  -1.9447  -1.6749  -1.3334
    -1.3230  -1.2461  -0.8086  -0.8004  -0.3840   0.1097   0.4461   0.9068
     1.0275   1.2108   1.2579   1.2632   1.3513   1.7332   1.7443   2.0326
     2.0483   2.9659   3.9196   3.9513   3.9765   3.9961   4.3738   4.4061
     5.6171   6.6274   7.8930   8.4886   9.1458  10.0463  11.5114  11.6704

     occupation numbers 
     1.0000   1.0000   1.0000   1.0000   1.0000   1.0000   1.0000   1.0000
     1.0000   1.0000   1.0000   1.0000   1.0000   1.0000   1.0000   1.0000
     1.0000   1.0000   1.0000   1.0000   1.0000   1.0000   1.0000   1.0000
     1.0000   1.0000   1.0000   1.0000   1.0000   1.0000   1.0000   1.0000
     1.0000   1.0000   1.0000   1.0000   1.0000   1.0000   1.0000   1.0000
     1.0000   1.0000   1.0000   1.0000   1.0000   1.0068   1.0079   1.0808
     1.0827   0.0005   0.0000   0.0000   0.0000   0.0000   0.0000   0.0000
     0.0000   0.0000   0.0000   0.0000   0.0000   0.0000   0.0000   0.0000

          k = 0.0000-0.5774 0.0000 ( 11352 PWs)   bands (ev):

   -93.5197 -93.5195 -93.5178 -56.7859 -56.7630 -56.7622 -56.7441 -56.7422
   -56.7413 -56.7183 -56.7177 -56.7148 -52.2254 -24.1429 -24.1426 -24.1034
   -16.0508 -16.0497 -15.2901 -15.2281 -14.9742 -14.9737  -3.9058  -3.0236
    -3.0180  -2.5258  -2.5248  -2.2112  -2.1849  -2.1831  -2.0571  -1.4406
    -1.4292  -1.2811  -0.9284  -0.9283  -0.4230   0.2318   0.9163   0.9595
     0.9615   1.1092   1.2234   1.2245   1.5891   1.7802   1.7852   1.9503
     1.9511   3.7679   3.7748   3.7791   3.9759   4.0773   4.2158   4.3918
     4.5698   7.4018   7.6940   8.0773   8.2829  10.7406  10.9515  11.3011

     occupation numbers 
     1.0000   1.0000   1.0000   1.0000   1.0000   1.0000   1.0000   1.0000
     1.0000   1.0000   1.0000   1.0000   1.0000   1.0000   1.0000   1.0000
     1.0000   1.0000   1.0000   1.0000   1.0000   1.0000   1.0000   1.0000
     1.0000   1.0000   1.0000   1.0000   1.0000   1.0000   1.0000   1.0000
     1.0000   1.0000   1.0000   1.0000   1.0000   1.0000   1.0000   1.0000
     1.0000   1.0000   1.0000   1.0000   1.0007   1.0123   1.0130   1.0574
     1.0576   0.0000   0.0000   0.0000   0.0000   0.0000   0.0000   0.0000
     0.0000   0.0000   0.0000   0.0000   0.0000   0.0000   0.0000   0.0000

          k = 0.0000-0.5774 0.1684 ( 11376 PWs)   bands (ev):

   -93.5197 -93.5196 -93.5178 -56.7859 -56.7631 -56.7623 -56.7441 -56.7422
   -56.7414 -56.7183 -56.7177 -56.7149 -52.2255 -24.1430 -24.1426 -24.1035
   -16.0508 -16.0497 -15.2901 -15.2281 -14.9742 -14.9737  -3.9058  -3.0239
    -3.0182  -2.5258  -2.5248  -2.2111  -2.1847  -2.1828  -2.0571  -1.4399
    -1.4288  -1.2811  -0.9284  -0.9283  -0.4228   0.2321   0.9162   0.9581
     0.9594   1.1092   1.2235   1.2246   1.5890   1.7838   1.7873   1.9454
     1.9483   3.6309   3.7452   3.9631   3.9791   4.1330   4.1741   4.3799
     4.5698   7.3663   7.6940   8.0346   8.2702  10.8895  11.1335  11.2904

     occupation numbers 
     1.0000   1.0000   1.0000   1.0000   1.0000   1.0000   1.0000   1.0000
     1.0000   1.0000   1.0000   1.0000   1.0000   1.0000   1.0000   1.0000
     1.0000   1.0000   1.0000   1.0000   1.0000   1.0000   1.0000   1.0000
     1.0000   1.0000   1.0000   1.0000   1.0000   1.0000   1.0000   1.0000
     1.0000   1.0000   1.0000   1.0000   1.0000   1.0000   1.0000   1.0000
     1.0000   1.0000   1.0000   1.0000   1.0007   1.0128   1.0133   1.0557
     1.0567   0.0000   0.0000   0.0000   0.0000   0.0000   0.0000   0.0000
     0.0000   0.0000   0.0000   0.0000   0.0000   0.0000   0.0000   0.0000

          k = 0.1667 0.2887 0.0000 ( 11373 PWs)   bands (ev):

   -93.5215 -93.5178 -93.5177 -56.7789 -56.7788 -56.7513 -56.7511 -56.7446
   -56.7342 -56.7210 -56.7153 -56.7146 -52.2255 -24.1428 -24.1426 -24.1035
   -16.5453 -15.4324 -15.4320 -15.0865 -15.0864 -14.9341  -3.4182  -3.4175
    -2.9443  -2.7233  -2.7188  -2.7178  -2.5129  -1.7967  -1.7930  -1.2592
    -1.2549  -1.1048  -1.1001  -0.6642  -0.0587   0.1475   0.1488   0.8945
     1.0401   1.0403   1.2799   1.3446   1.3449   1.6115   1.9165   1.9174
     2.0429   2.7702   3.9200   3.9252   3.9803   4.1759   4.1762   4.5440
     6.5310   6.5434   6.8346   9.3879   9.8611  10.2823  10.4728  10.7904

     occupation numbers 
     1.0000   1.0000   1.0000   1.0000   1.0000   1.0000   1.0000   1.0000
     1.0000   1.0000   1.0000   1.0000   1.0000   1.0000   1.0000   1.0000
     1.0000   1.0000   1.0000   1.0000   1.0000   1.0000   1.0000   1.0000
     1.0000   1.0000   1.0000   1.0000   1.0000   1.0000   1.0000   1.0000
     1.0000   1.0000   1.0000   1.0000   1.0000   1.0000   1.0000   1.0000
     1.0000   1.0000   1.0000   1.0000   1.0000   1.0011   1.0458   1.0460
     1.0822   0.0147   0.0000   0.0000   0.0000   0.0000   0.0000   0.0000
     0.0000   0.0000   0.0000   0.0000   0.0000   0.0000   0.0000   0.0000

          k = 0.1667 0.2887 0.1684 ( 11359 PWs)   bands (ev):

   -93.5215 -93.5178 -93.5177 -56.7789 -56.7787 -56.7512 -56.7510 -56.7446
   -56.7342 -56.7210 -56.7153 -56.7146 -52.2254 -24.1427 -24.1425 -24.1035
   -16.5453 -15.4324 -15.4320 -15.0864 -15.0864 -14.9341  -3.4181  -3.4175
    -2.9447  -2.7233  -2.7188  -2.7166  -2.5129  -1.7968  -1.7930  -1.2590
    -1.2548  -1.1048  -1.1001  -0.6637  -0.0587   0.1476   0.1489   0.8797
     1.0400   1.0403   1.2704   1.3447   1.3450   1.6115   1.9163   1.9172
     2.0807   2.7567   3.9190   3.9242   4.0149   4.1769   4.1773   4.5439
     6.4038   6.5299   6.8330   9.7928   9.8879  10.2790  10.4800  10.8032

     occupation numbers 
     1.0000   1.0000   1.0000   1.0000   1.0000   1.0000   1.0000   1.0000
     1.0000   1.0000   1.0000   1.0000   1.0000   1.0000   1.0000   1.0000
     1.0000   1.0000   1.0000   1.0000   1.0000   1.0000   1.0000   1.0000
     1.0000   1.0000   1.0000   1.0000   1.0000   1.0000   1.0000   1.0000
     1.0000   1.0000   1.0000   1.0000   1.0000   1.0000   1.0000   1.0000
     1.0000   1.0000   1.0000   1.0000   1.0000   1.0011   1.0457   1.0460
     1.0821   0.0178   0.0000   0.0000   0.0000   0.0000   0.0000   0.0000
     0.0000   0.0000   0.0000   0.0000   0.0000   0.0000   0.0000   0.0000

          k = 0.1667 0.4811 0.0000 ( 11356 PWs)   bands (ev):

   -93.5202 -93.5188 -93.5181 -56.7818 -56.7719 -56.7587 -56.7443 -56.7439
   -56.7381 -56.7190 -56.7167 -56.7153 -52.2254 -24.1429 -24.1427 -24.1035
   -16.2008 -15.7929 -15.5051 -15.0961 -15.0114 -14.9613  -3.6870  -3.2076
    -3.0688  -2.6132  -2.4354  -2.4345  -2.3085  -2.0233  -1.9832  -1.4824
    -1.4567  -1.2970  -0.8789  -0.6051  -0.4903   0.2858   0.6376   0.9488
     1.0981   1.2304   1.2511   1.3345   1.4906   1.6876   1.7349   1.9070
     1.9366   3.5024   3.7262   3.7532   3.8842   4.2792   4.4246   4.4901
     4.9905   6.2823   7.2469   8.5822   9.8315  10.0486  10.4108  11.6162

     occupation numbers 
     1.0000   1.0000   1.0000   1.0000   1.0000   1.0000   1.0000   1.0000
     1.0000   1.0000   1.0000   1.0000   1.0000   1.0000   1.0000   1.0000
     1.0000   1.0000   1.0000   1.0000   1.0000   1.0000   1.0000   1.0000
     1.0000   1.0000   1.0000   1.0000   1.0000   1.0000   1.0000   1.0000
     1.0000   1.0000   1.0000   1.0000   1.0000   1.0000   1.0000   1.0000
     1.0000   1.0000   1.0000   1.0000   1.0001   1.0036   1.0069   1.0426
     1.0526   0.0000   0.0000   0.0000   0.0000   0.0000   0.0000   0.0000
     0.0000   0.0000   0.0000   0.0000   0.0000   0.0000   0.0000   0.0000

          k = 0.1667 0.4811 0.1684 ( 11345 PWs)   bands (ev):

   -93.5202 -93.5188 -93.5180 -56.7818 -56.7719 -56.7587 -56.7443 -56.7439
   -56.7381 -56.7189 -56.7167 -56.7153 -52.2254 -24.1429 -24.1426 -24.1035
   -16.2008 -15.7929 -15.5051 -15.0961 -15.0114 -14.9613  -3.6871  -3.2077
    -3.0691  -2.6133  -2.4352  -2.4344  -2.3083  -2.0233  -1.9833  -1.4819
    -1.4562  -1.2968  -0.8788  -0.6051  -0.4902   0.2861   0.6376   0.9469
     1.0981   1.2304   1.2511   1.3314   1.4910   1.6875   1.7329   1.9065
     1.9442   3.4021   3.7288   3.8603   3.8881   4.2860   4.4188   4.4904
     5.0055   6.2892   7.1626   8.5425   9.8126  10.0499  10.6973  11.7514

     occupation numbers 
     1.0000   1.0000   1.0000   1.0000   1.0000   1.0000   1.0000   1.0000
     1.0000   1.0000   1.0000   1.0000   1.0000   1.0000   1.0000   1.0000
     1.0000   1.0000   1.0000   1.0000   1.0000   1.0000   1.0000   1.0000
     1.0000   1.0000   1.0000   1.0000   1.0000   1.0000   1.0000   1.0000
     1.0000   1.0000   1.0000   1.0000   1.0000   1.0000   1.0000   1.0000
     1.0000   1.0000   1.0000   1.0000   1.0001   1.0036   1.0068   1.0425
     1.0552   0.0000   0.0000   0.0000   0.0000   0.0000   0.0000   0.0000
     0.0000   0.0000   0.0000   0.0000   0.0000   0.0000   0.0000   0.0000

          k = 0.3333 0.5774 0.0000 ( 11370 PWs)   bands (ev):

   -93.5191 -93.5189 -93.5189 -56.7723 -56.7723 -56.7717 -56.7410 -56.7410
   -56.7404 -56.7174 -56.7174 -56.7163 -52.2254 -24.1429 -24.1429 -24.1035
   -15.8537 -15.8524 -15.8524 -15.0095 -15.0090 -15.0090  -3.3206  -3.3187
    -3.3187  -2.4449  -2.4400  -2.4400  -2.1518  -2.1518  -2.1502  -1.5657
    -1.5503  -1.5503  -0.5282  -0.5282  -0.5265   0.6390   0.6390   0.6443
     1.2993   1.2993   1.2995   1.4988   1.4988   1.5003   1.7610   1.7646
     1.7646   3.6396   3.6690   3.6690   4.3497   4.4961   4.4961   4.4966
     4.9518   4.9518   7.7313   8.6638   8.6638  11.1343  11.5075  11.5075

     occupation numbers 
     1.0000   1.0000   1.0000   1.0000   1.0000   1.0000   1.0000   1.0000
     1.0000   1.0000   1.0000   1.0000   1.0000   1.0000   1.0000   1.0000
     1.0000   1.0000   1.0000   1.0000   1.0000   1.0000   1.0000   1.0000
     1.0000   1.0000   1.0000   1.0000   1.0000   1.0000   1.0000   1.0000
     1.0000   1.0000   1.0000   1.0000   1.0000   1.0000   1.0000   1.0000
     1.0000   1.0000   1.0000   1.0001   1.0001   1.0001   1.0097   1.0101
     1.0101   0.0000   0.0000   0.0000   0.0000   0.0000   0.0000   0.0000
     0.0000   0.0000   0.0000   0.0000   0.0000   0.0000   0.0000   0.0000

          k = 0.3333 0.5774 0.1684 ( 11352 PWs)   bands (ev):

   -93.5191 -93.5189 -93.5189 -56.7723 -56.7723 -56.7717 -56.7410 -56.7410
   -56.7404 -56.7173 -56.7173 -56.7162 -52.2254 -24.1428 -24.1428 -24.1034
   -15.8537 -15.8524 -15.8524 -15.0095 -15.0090 -15.0090  -3.3207  -3.3188
    -3.3188  -2.4451  -2.4400  -2.4400  -2.1518  -2.1518  -2.1502  -1.5649
    -1.5499  -1.5499  -0.5283  -0.5283  -0.5265   0.6391   0.6391   0.6444
     1.2988   1.2989   1.2989   1.4988   1.4988   1.5003   1.7626   1.7655
     1.7655   3.5973   3.6537   3.6537   4.4099   4.4962   4.4962   4.4966
     4.9801   4.9801   7.6778   8.6029   8.6029  11.2932  11.7265  11.7265

     occupation numbers 
     1.0000   1.0000   1.0000   1.0000   1.0000   1.0000   1.0000   1.0000
     1.0000   1.0000   1.0000   1.0000   1.0000   1.0000   1.0000   1.0000
     1.0000   1.0000   1.0000   1.0000   1.0000   1.0000   1.0000   1.0000
     1.0000   1.0000   1.0000   1.0000   1.0000   1.0000   1.0000   1.0000
     1.0000   1.0000   1.0000   1.0000   1.0000   1.0000   1.0000   1.0000
     1.0000   1.0000   1.0000   1.0001   1.0001   1.0001   1.0099   1.0103
     1.0103   0.0000   0.0000   0.0000   0.0000   0.0000   0.0000   0.0000
     0.0000   0.0000   0.0000   0.0000   0.0000   0.0000   0.0000   0.0000

          k =-0.1667-0.2887 0.1684 ( 11359 PWs)   bands (ev):

   -93.5215 -93.5178 -93.5177 -56.7789 -56.7787 -56.7512 -56.7510 -56.7446
   -56.7342 -56.7210 -56.7153 -56.7146 -52.2254 -24.1427 -24.1425 -24.1035
   -16.5453 -15.4324 -15.4320 -15.0865 -15.0864 -14.9341  -3.4182  -3.4175
    -2.9445  -2.7233  -2.7187  -2.7168  -2.5129  -1.7967  -1.7930  -1.2591
    -1.2548  -1.1047  -1.1000  -0.6640  -0.0587   0.1476   0.1489   0.8796
     1.0401   1.0403   1.2712   1.3447   1.3450   1.6115   1.9161   1.9171
     2.0728   2.7802   3.9211   3.9260   3.9837   4.1761   4.1764   4.5439
     6.4398   6.5205   6.8266   9.7364   9.9220  10.2806  10.5283  10.7974

     occupation numbers 
     1.0000   1.0000   1.0000   1.0000   1.0000   1.0000   1.0000   1.0000
     1.0000   1.0000   1.0000   1.0000   1.0000   1.0000   1.0000   1.0000
     1.0000   1.0000   1.0000   1.0000   1.0000   1.0000   1.0000   1.0000
     1.0000   1.0000   1.0000   1.0000   1.0000   1.0000   1.0000   1.0000
     1.0000   1.0000   1.0000   1.0000   1.0000   1.0000   1.0000   1.0000
     1.0000   1.0000   1.0000   1.0000   1.0000   1.0011   1.0456   1.0459
     1.0829   0.0127   0.0000   0.0000   0.0000   0.0000   0.0000   0.0000
     0.0000   0.0000   0.0000   0.0000   0.0000   0.0000   0.0000   0.0000

          k =-0.1667-0.4811 0.1684 ( 11345 PWs)   bands (ev):

   -93.5202 -93.5188 -93.5180 -56.7818 -56.7719 -56.7587 -56.7443 -56.7439
   -56.7381 -56.7189 -56.7167 -56.7153 -52.2254 -24.1429 -24.1426 -24.1035
   -16.2008 -15.7929 -15.5051 -15.0961 -15.0114 -14.9613  -3.6871  -3.2077
    -3.0690  -2.6133  -2.4353  -2.4344  -2.3084  -2.0233  -1.9832  -1.4818
    -1.4561  -1.2967  -0.8788  -0.6051  -0.4902   0.2859   0.6372   0.9460
     1.0982   1.2304   1.2512   1.3321   1.4912   1.6872   1.7343   1.9052
     1.9379   3.5078   3.7344   3.7553   3.8845   4.2803   4.4227   4.4902
     4.9856   6.2725   7.2157   8.5974   9.8986  10.0512  10.5644  11.5786

     occupation numbers 
     1.0000   1.0000   1.0000   1.0000   1.0000   1.0000   1.0000   1.0000
     1.0000   1.0000   1.0000   1.0000   1.0000   1.0000   1.0000   1.0000
     1.0000   1.0000   1.0000   1.0000   1.0000   1.0000   1.0000   1.0000
     1.0000   1.0000   1.0000   1.0000   1.0000   1.0000   1.0000   1.0000
     1.0000   1.0000   1.0000   1.0000   1.0000   1.0000   1.0000   1.0000
     1.0000   1.0000   1.0000   1.0000   1.0001   1.0036   1.0069   1.0420
     1.0531   0.0000   0.0000   0.0000   0.0000   0.0000   0.0000   0.0000
     0.0000   0.0000   0.0000   0.0000   0.0000   0.0000   0.0000   0.0000

          k =-0.3333-0.5774 0.1684 ( 11352 PWs)   bands (ev):

   -93.5191 -93.5189 -93.5189 -56.7723 -56.7723 -56.7717 -56.7410 -56.7410
   -56.7404 -56.7173 -56.7173 -56.7162 -52.2254 -24.1428 -24.1428 -24.1034
   -15.8537 -15.8524 -15.8524 -15.0095 -15.0090 -15.0090  -3.3207  -3.3188
    -3.3188  -2.4452  -2.4401  -2.4401  -2.1518  -2.1518  -2.1502  -1.5647
    -1.5498  -1.5498  -0.5282  -0.5282  -0.5265   0.6386   0.6386   0.6437
     1.2993   1.2993   1.2995   1.4988   1.4988   1.5003   1.7595   1.7638
     1.7638   3.6464   3.6711   3.6711   4.3397   4.4962   4.4962   4.4966
     4.9475   4.9475   7.7566   8.6873   8.6873  11.0667  11.4604  11.4604

     occupation numbers 
     1.0000   1.0000   1.0000   1.0000   1.0000   1.0000   1.0000   1.0000
     1.0000   1.0000   1.0000   1.0000   1.0000   1.0000   1.0000   1.0000
     1.0000   1.0000   1.0000   1.0000   1.0000   1.0000   1.0000   1.0000
     1.0000   1.0000   1.0000   1.0000   1.0000   1.0000   1.0000   1.0000
     1.0000   1.0000   1.0000   1.0000   1.0000   1.0000   1.0000   1.0000
     1.0000   1.0000   1.0000   1.0001   1.0001   1.0001   1.0095   1.0100
     1.0100   0.0000   0.0000   0.0000   0.0000   0.0000   0.0000   0.0000
     0.0000   0.0000   0.0000   0.0000   0.0000   0.0000   0.0000   0.0000

 ------ SPIN DOWN ----------


          k = 0.0000 0.0000 0.0000 ( 11393 PWs)   bands (ev):

   -92.7228 -92.7176 -92.7161 -56.0430 -56.0430 -56.0421 -56.0421 -56.0027
   -56.0027 -55.8398 -55.8308 -55.8291 -52.2288 -24.1467 -24.1467 -24.1068
   -16.7288 -15.0428 -15.0428 -15.0426 -15.0426 -14.7956  -2.7408  -2.7408
    -2.7369  -2.7369  -2.7052  -2.4554  -2.4554  -2.3806  -2.3730  -0.6066
    -0.6066  -0.6031  -0.6031  -0.4106  -0.4014   0.6621   1.1372   1.1372
     1.3984   1.3984   1.7768   1.7793   1.9365   2.4647   2.4647   2.4652
     2.4652   2.9751   4.3019   4.3019   4.3067   4.3067   5.0333   5.0333
     5.9543   8.5472   9.1480   9.1480   9.8659   9.8659  10.4569  10.6693

     occupation numbers 
     1.0000   1.0000   1.0000   1.0000   1.0000   1.0000   1.0000   1.0000
     1.0000   1.0000   1.0000   1.0000   1.0000   1.0000   1.0000   1.0000
     1.0000   1.0000   1.0000   1.0000   1.0000   1.0000   1.0000   1.0000
     1.0000   1.0000   1.0000   1.0000   1.0000   1.0000   1.0000   1.0000
     1.0000   1.0000   1.0000   1.0000   1.0000   1.0000   1.0000   1.0000
     1.0000   1.0000   1.0118   1.0121   1.0526   0.3571   0.3571   0.3560
     0.3560   0.0004   0.0000   0.0000   0.0000   0.0000   0.0000   0.0000
     0.0000   0.0000   0.0000   0.0000   0.0000   0.0000   0.0000   0.0000

          k = 0.0000 0.0000 0.1684 ( 11332 PWs)   bands (ev):

   -92.7228 -92.7175 -92.7161 -56.0429 -56.0429 -56.0421 -56.0421 -56.0027
   -56.0027 -55.8397 -55.8307 -55.8290 -52.2287 -24.1466 -24.1466 -24.1066
   -16.7288 -15.0428 -15.0428 -15.0426 -15.0426 -14.7956  -2.7407  -2.7407
    -2.7369  -2.7369  -2.7029  -2.4554  -2.4554  -2.3805  -2.3729  -0.6065
    -0.6065  -0.6030  -0.6030  -0.4107  -0.4013   0.6113   1.1371   1.1371
     1.3984   1.3984   1.7770   1.7793   2.0559   2.4647   2.4647   2.4652
     2.4652   2.9360   4.3023   4.3023   4.3071   4.3071   5.0333   5.0333
     5.7734   9.0990   9.1416   9.1416   9.8593   9.8594  10.4229  10.6679

     occupation numbers 
     1.0000   1.0000   1.0000   1.0000   1.0000   1.0000   1.0000   1.0000
     1.0000   1.0000   1.0000   1.0000   1.0000   1.0000   1.0000   1.0000
     1.0000   1.0000   1.0000   1.0000   1.0000   1.0000   1.0000   1.0000
     1.0000   1.0000   1.0000   1.0000   1.0000   1.0000   1.0000   1.0000
     1.0000   1.0000   1.0000   1.0000   1.0000   1.0000   1.0000   1.0000
     1.0000   1.0000   1.0118   1.0121   1.0832   0.3572   0.3572   0.3560
     0.3560   0.0010   0.0000   0.0000   0.0000   0.0000   0.0000   0.0000
     0.0000   0.0000   0.0000   0.0000   0.0000   0.0000   0.0000   0.0000

          k = 0.0000 0.1925 0.0000 ( 11360 PWs)   bands (ev):

   -92.7224 -92.7178 -92.7163 -56.0516 -56.0490 -56.0323 -56.0311 -56.0077
   -56.0039 -55.8389 -55.8312 -55.8294 -52.2287 -24.1468 -24.1468 -24.1066
   -16.6254 -15.1957 -15.1077 -15.0307 -14.9694 -14.7996  -3.1694  -2.9225
    -2.7325  -2.6362  -2.5877  -2.5609  -2.3910  -1.9950  -1.7898  -1.0211
    -0.9568  -0.7109  -0.6509  -0.0031   0.0627   0.4257   0.5656   0.9105
     1.7125   1.8266   1.8315   1.8839   2.1519   2.2331   2.2417   2.5318
     2.5959   3.0066   4.2962   4.3411   4.3491   4.3920   4.7483   4.9574
     6.1664   7.4208   8.4297   8.8283   9.1372  10.8310  11.0001  11.6054

     occupation numbers 
     1.0000   1.0000   1.0000   1.0000   1.0000   1.0000   1.0000   1.0000
     1.0000   1.0000   1.0000   1.0000   1.0000   1.0000   1.0000   1.0000
     1.0000   1.0000   1.0000   1.0000   1.0000   1.0000   1.0000   1.0000
     1.0000   1.0000   1.0000   1.0000   1.0000   1.0000   1.0000   1.0000
     1.0000   1.0000   1.0000   1.0000   1.0000   1.0000   1.0000   1.0000
     1.0051   1.0206   1.0216   1.0354   1.0492   0.9409   0.9247   0.2161
     0.1208   0.0002   0.0000   0.0000   0.0000   0.0000   0.0000   0.0000
     0.0000   0.0000   0.0000   0.0000   0.0000   0.0000   0.0000   0.0000

          k = 0.0000 0.1925 0.1684 ( 11375 PWs)   bands (ev):

   -92.7224 -92.7178 -92.7163 -56.0515 -56.0490 -56.0323 -56.0310 -56.0078
   -56.0040 -55.8391 -55.8312 -55.8294 -52.2287 -24.1469 -24.1467 -24.1067
   -16.6254 -15.1957 -15.1077 -15.0307 -14.9694 -14.7996  -3.1693  -2.9225
    -2.7325  -2.6362  -2.5858  -2.5611  -2.3910  -1.9950  -1.7898  -1.0212
    -0.9569  -0.7107  -0.6509  -0.0030   0.0628   0.4263   0.5603   0.8726
     1.7129   1.8202   1.8315   1.8839   2.2332   2.2417   2.2690   2.5317
     2.5957   2.9598   4.2975   4.3413   4.3488   4.3925   4.7621   4.9554
     6.0027   7.4141   8.4236   9.0047   9.4736  10.8043  10.9900  11.1273

     occupation numbers 
     1.0000   1.0000   1.0000   1.0000   1.0000   1.0000   1.0000   1.0000
     1.0000   1.0000   1.0000   1.0000   1.0000   1.0000   1.0000   1.0000
     1.0000   1.0000   1.0000   1.0000   1.0000   1.0000   1.0000   1.0000
     1.0000   1.0000   1.0000   1.0000   1.0000   1.0000   1.0000   1.0000
     1.0000   1.0000   1.0000   1.0000   1.0000   1.0000   1.0000   1.0000
     1.0051   1.0192   1.0216   1.0354   0.9408   0.9248   0.8680   0.2163
     0.1211   0.0006   0.0000   0.0000   0.0000   0.0000   0.0000   0.0000
     0.0000   0.0000   0.0000   0.0000   0.0000   0.0000   0.0000   0.0000

          k = 0.0000 0.3849 0.0000 ( 11350 PWs)   bands (ev):

   -92.7212 -92.7184 -92.7168 -56.0578 -56.0466 -56.0223 -56.0210 -56.0201
   -56.0077 -55.8370 -55.8323 -55.8302 -52.2287 -24.1471 -24.1469 -24.1066
   -16.3377 -15.5139 -15.1525 -15.0761 -14.9008 -14.8148  -3.5803  -2.7531
    -2.7523  -2.7354  -2.3814  -2.2895  -2.2341  -1.7733  -1.4871  -1.0427
    -1.0324  -0.9941  -0.6256  -0.5712  -0.0825   0.3084   0.6602   1.2211
     1.8651   1.8734   2.0001   2.0230   2.2305   2.2369   2.3883   2.6139
     2.7059   3.0603   4.2624   4.2820   4.3277   4.3803   4.6955   4.7434
     5.5467   6.7379   7.8358   8.3970   9.1374   9.7551  11.5119  11.6631

     occupation numbers 
     1.0000   1.0000   1.0000   1.0000   1.0000   1.0000   1.0000   1.0000
     1.0000   1.0000   1.0000   1.0000   1.0000   1.0000   1.0000   1.0000
     1.0000   1.0000   1.0000   1.0000   1.0000   1.0000   1.0000   1.0000
     1.0000   1.0000   1.0000   1.0000   1.0000   1.0000   1.0000   1.0000
     1.0000   1.0000   1.0000   1.0000   1.0000   1.0000   1.0000   1.0000
     1.0300   1.0323   1.0734   1.0790   0.9457   0.9339   0.5569   0.1007
     0.0350   0.0001   0.0000   0.0000   0.0000   0.0000   0.0000   0.0000
     0.0000   0.0000   0.0000   0.0000   0.0000   0.0000   0.0000   0.0000

          k = 0.0000 0.3849 0.1684 ( 11369 PWs)   bands (ev):

   -92.7212 -92.7185 -92.7168 -56.0577 -56.0466 -56.0224 -56.0210 -56.0201
   -56.0077 -55.8371 -55.8324 -55.8303 -52.2287 -24.1471 -24.1469 -24.1067
   -16.3377 -15.5139 -15.1525 -15.0761 -14.9008 -14.8148  -3.5802  -2.7533
    -2.7523  -2.7357  -2.3814  -2.2884  -2.2339  -1.7734  -1.4871  -1.0426
    -1.0325  -0.9936  -0.6256  -0.5704  -0.0826   0.3086   0.6599   1.2018
     1.8651   1.8734   2.0001   2.0231   2.2198   2.2371   2.3882   2.6124
     2.8120   2.9859   4.2727   4.2976   4.3364   4.3802   4.6958   4.7324
     5.5452   6.6327   7.8334   8.3880   9.1447  10.1213  11.5172  11.7003

     occupation numbers 
     1.0000   1.0000   1.0000   1.0000   1.0000   1.0000   1.0000   1.0000
     1.0000   1.0000   1.0000   1.0000   1.0000   1.0000   1.0000   1.0000
     1.0000   1.0000   1.0000   1.0000   1.0000   1.0000   1.0000   1.0000
     1.0000   1.0000   1.0000   1.0000   1.0000   1.0000   1.0000   1.0000
     1.0000   1.0000   1.0000   1.0000   1.0000   1.0000   1.0000   1.0000
     1.0300   1.0323   1.0734   1.0790   0.9643   0.9335   0.5572   0.1023
     0.0079   0.0004   0.0000   0.0000   0.0000   0.0000   0.0000   0.0000
     0.0000   0.0000   0.0000   0.0000   0.0000   0.0000   0.0000   0.0000

          k = 0.0000-0.5774 0.0000 ( 11352 PWs)   bands (ev):

   -92.7201 -92.7193 -92.7171 -56.0600 -56.0361 -56.0353 -56.0164 -56.0144
   -56.0135 -55.8350 -55.8339 -55.8306 -52.2287 -24.1472 -24.1469 -24.1066
   -15.9329 -15.9318 -15.1684 -15.1011 -14.8479 -14.8474  -3.7299  -2.8042
    -2.7976  -2.3215  -2.3206  -2.1086  -1.9115  -1.9081  -1.8240  -1.1755
    -1.1615  -0.9181  -0.6777  -0.6766  -0.3383   0.4073   1.1563   1.1585
     1.8059   1.8934   1.9401   1.9412   2.2945   2.4897   2.4927   2.6378
     2.6446   3.7548   4.1191   4.1328   4.1509   4.3949   4.5211   4.5482
     4.8840   7.4118   7.6331   8.0758   8.1821  10.8043  11.0241  11.3078

     occupation numbers 
     1.0000   1.0000   1.0000   1.0000   1.0000   1.0000   1.0000   1.0000
     1.0000   1.0000   1.0000   1.0000   1.0000   1.0000   1.0000   1.0000
     1.0000   1.0000   1.0000   1.0000   1.0000   1.0000   1.0000   1.0000
     1.0000   1.0000   1.0000   1.0000   1.0000   1.0000   1.0000   1.0000
     1.0000   1.0000   1.0000   1.0000   1.0000   1.0000   1.0000   1.0000
     1.0165   1.0383   1.0538   1.0542   0.8084   0.2999   0.2935   0.0781
     0.0725   0.0000   0.0000   0.0000   0.0000   0.0000   0.0000   0.0000
     0.0000   0.0000   0.0000   0.0000   0.0000   0.0000   0.0000   0.0000

          k = 0.0000-0.5774 0.1684 ( 11376 PWs)   bands (ev):

   -92.7201 -92.7193 -92.7171 -56.0599 -56.0362 -56.0354 -56.0164 -56.0144
   -56.0135 -55.8351 -55.8340 -55.8306 -52.2287 -24.1473 -24.1469 -24.1067
   -15.9329 -15.9318 -15.1684 -15.1011 -14.8479 -14.8474  -3.7299  -2.8046
    -2.7979  -2.3215  -2.3206  -2.1086  -1.9113  -1.9078  -1.8239  -1.1743
    -1.1608  -0.9181  -0.6777  -0.6766  -0.3381   0.4077   1.1542   1.1554
     1.8059   1.8934   1.9402   1.9412   2.2944   2.4824   2.4887   2.6441
     2.6480   3.7107   4.0104   4.2094   4.3264   4.3941   4.4909   4.5067
     4.8841   7.3723   7.6337   8.0306   8.1696  10.9547  11.2093  11.2964

     occupation numbers 
     1.0000   1.0000   1.0000   1.0000   1.0000   1.0000   1.0000   1.0000
     1.0000   1.0000   1.0000   1.0000   1.0000   1.0000   1.0000   1.0000
     1.0000   1.0000   1.0000   1.0000   1.0000   1.0000   1.0000   1.0000
     1.0000   1.0000   1.0000   1.0000   1.0000   1.0000   1.0000   1.0000
     1.0000   1.0000   1.0000   1.0000   1.0000   1.0000   1.0000   1.0000
     1.0165   1.0383   1.0539   1.0542   0.8086   0.3161   0.3021   0.0728
     0.0698   0.0000   0.0000   0.0000   0.0000   0.0000   0.0000   0.0000
     0.0000   0.0000   0.0000   0.0000   0.0000   0.0000   0.0000   0.0000

          k = 0.1667 0.2887 0.0000 ( 11373 PWs)   bands (ev):

   -92.7216 -92.7182 -92.7167 -56.0526 -56.0525 -56.0238 -56.0237 -56.0169
   -56.0061 -55.8376 -55.8319 -55.8301 -52.2287 -24.1470 -24.1469 -24.1067
   -16.4299 -15.3103 -15.3099 -14.9598 -14.9598 -14.8094  -3.2403  -3.2401
    -2.7057  -2.5534  -2.5487  -2.3746  -2.2697  -1.6198  -1.6159  -1.0480
    -1.0451  -0.8069  -0.8005  -0.4243   0.2654   0.3578   0.3596   1.1037
     1.8572   1.9927   1.9936   2.0672   2.0676   2.1054   2.5312   2.5319
     2.5529   3.0274   4.3007   4.3071   4.3326   4.5058   4.5067   4.8689
     6.4735   6.5521   6.7407   9.4530   9.8610  10.2132  10.4716  10.7129

     occupation numbers 
     1.0000   1.0000   1.0000   1.0000   1.0000   1.0000   1.0000   1.0000
     1.0000   1.0000   1.0000   1.0000   1.0000   1.0000   1.0000   1.0000
     1.0000   1.0000   1.0000   1.0000   1.0000   1.0000   1.0000   1.0000
     1.0000   1.0000   1.0000   1.0000   1.0000   1.0000   1.0000   1.0000
     1.0000   1.0000   1.0000   1.0000   1.0000   1.0000   1.0000   1.0000
     1.0278   1.0713   1.0715   1.0832   1.0832   1.0763   0.2173   0.2160
     0.1805   0.0002   0.0000   0.0000   0.0000   0.0000   0.0000   0.0000
     0.0000   0.0000   0.0000   0.0000   0.0000   0.0000   0.0000   0.0000

          k = 0.1667 0.2887 0.1684 ( 11359 PWs)   bands (ev):

   -92.7216 -92.7182 -92.7167 -56.0526 -56.0524 -56.0238 -56.0236 -56.0169
   -56.0061 -55.8377 -55.8319 -55.8301 -52.2287 -24.1470 -24.1468 -24.1067
   -16.4299 -15.3103 -15.3099 -14.9598 -14.9598 -14.8095  -3.2403  -3.2401
    -2.7061  -2.5534  -2.5487  -2.3731  -2.2697  -1.6198  -1.6159  -1.0479
    -1.0451  -0.8068  -0.8004  -0.4235   0.2654   0.3579   0.3597   1.0793
     1.8484   1.9927   1.9936   2.0672   2.0677   2.1054   2.5307   2.5317
     2.6657   2.9493   4.2993   4.3057   4.3696   4.5072   4.5081   4.8689
     6.4068   6.4729   6.7395   9.8310   9.9127  10.2098  10.4792  10.7361

     occupation numbers 
     1.0000   1.0000   1.0000   1.0000   1.0000   1.0000   1.0000   1.0000
     1.0000   1.0000   1.0000   1.0000   1.0000   1.0000   1.0000   1.0000
     1.0000   1.0000   1.0000   1.0000   1.0000   1.0000   1.0000   1.0000
     1.0000   1.0000   1.0000   1.0000   1.0000   1.0000   1.0000   1.0000
     1.0000   1.0000   1.0000   1.0000   1.0000   1.0000   1.0000   1.0000
     1.0256   1.0712   1.0715   1.0832   1.0832   1.0763   0.2180   0.2163
     0.0570   0.0007   0.0000   0.0000   0.0000   0.0000   0.0000   0.0000
     0.0000   0.0000   0.0000   0.0000   0.0000   0.0000   0.0000   0.0000

          k = 0.1667 0.4811 0.0000 ( 11356 PWs)   bands (ev):

   -92.7203 -92.7189 -92.7172 -56.0556 -56.0453 -56.0317 -56.0166 -56.0162
   -56.0102 -55.8356 -55.8332 -55.8309 -52.2287 -24.1471 -24.1469 -24.1067
   -16.0837 -15.6734 -15.3835 -14.9698 -14.8847 -14.8354  -3.5040  -3.0009
    -2.8434  -2.4427  -2.2898  -2.1813  -2.0496  -1.8107  -1.7709  -1.2022
    -1.1384  -0.9442  -0.6679  -0.4640  -0.2158   0.4929   0.8515   1.1906
     1.9131   1.9470   1.9670   1.9964   2.2939   2.3016   2.3814   2.5465
     2.7547   3.5069   4.0547   4.1274   4.2953   4.5846   4.7381   4.8040
     4.9283   6.2001   7.2553   8.5819   9.8271   9.9817  10.4699  11.6757

     occupation numbers 
     1.0000   1.0000   1.0000   1.0000   1.0000   1.0000   1.0000   1.0000
     1.0000   1.0000   1.0000   1.0000   1.0000   1.0000   1.0000   1.0000
     1.0000   1.0000   1.0000   1.0000   1.0000   1.0000   1.0000   1.0000
     1.0000   1.0000   1.0000   1.0000   1.0000   1.0000   1.0000   1.0000
     1.0000   1.0000   1.0000   1.0000   1.0000   1.0000   1.0000   1.0000
     1.0446   1.0562   1.0631   1.0723   0.8097   0.7907   0.5760   0.1909
     0.0183   0.0000   0.0000   0.0000   0.0000   0.0000   0.0000   0.0000
     0.0000   0.0000   0.0000   0.0000   0.0000   0.0000   0.0000   0.0000

          k = 0.1667 0.4811 0.1684 ( 11345 PWs)   bands (ev):

   -92.7203 -92.7189 -92.7172 -56.0556 -56.0453 -56.0316 -56.0166 -56.0162
   -56.0102 -55.8355 -55.8332 -55.8309 -52.2287 -24.1472 -24.1469 -24.1067
   -16.0837 -15.6734 -15.3835 -14.9697 -14.8847 -14.8354  -3.5041  -3.0010
    -2.8438  -2.4428  -2.2899  -2.1810  -2.0492  -1.8107  -1.7709  -1.2013
    -1.1378  -0.9440  -0.6679  -0.4640  -0.2158   0.4932   0.8514   1.1860
     1.9130   1.9445   1.9669   1.9963   2.2912   2.3012   2.3814   2.5469
     2.7730   3.4422   4.0958   4.1484   4.2909   4.6038   4.7328   4.8045
     4.9459   6.2093   7.1651   8.5402   9.8113   9.9746  10.7665  11.8106

     occupation numbers 
     1.0000   1.0000   1.0000   1.0000   1.0000   1.0000   1.0000   1.0000
     1.0000   1.0000   1.0000   1.0000   1.0000   1.0000   1.0000   1.0000
     1.0000   1.0000   1.0000   1.0000   1.0000   1.0000   1.0000   1.0000
     1.0000   1.0000   1.0000   1.0000   1.0000   1.0000   1.0000   1.0000
     1.0000   1.0000   1.0000   1.0000   1.0000   1.0000   1.0000   1.0000
     1.0446   1.0554   1.0630   1.0723   0.8162   0.7917   0.5760   0.1902
     0.0141   0.0000   0.0000   0.0000   0.0000   0.0000   0.0000   0.0000
     0.0000   0.0000   0.0000   0.0000   0.0000   0.0000   0.0000   0.0000

          k = 0.3333 0.5774 0.0000 ( 11370 PWs)   bands (ev):

   -92.7195 -92.7195 -92.7175 -56.0460 -56.0454 -56.0454 -56.0135 -56.0128
   -56.0128 -55.8340 -55.8340 -55.8316 -52.2287 -24.1471 -24.1471 -24.1067
   -15.7346 -15.7332 -15.7332 -14.8830 -14.8825 -14.8825  -3.1123  -3.1096
    -3.1096  -2.2863  -2.2808  -2.2808  -1.9275  -1.9275  -1.9260  -1.2154
    -1.1986  -1.1986  -0.3088  -0.3088  -0.3073   0.8671   0.8671   0.8729
     1.9662   1.9682   1.9682   2.1531   2.1531   2.1531   2.5546   2.5598
     2.5598   4.0077   4.0715   4.0715   4.3582   4.8048   4.8048   4.8049
     4.8588   4.8588   7.7411   8.6619   8.6619  11.1737  11.5772  11.5772

     occupation numbers 
     1.0000   1.0000   1.0000   1.0000   1.0000   1.0000   1.0000   1.0000
     1.0000   1.0000   1.0000   1.0000   1.0000   1.0000   1.0000   1.0000
     1.0000   1.0000   1.0000   1.0000   1.0000   1.0000   1.0000   1.0000
     1.0000   1.0000   1.0000   1.0000   1.0000   1.0000   1.0000   1.0000
     1.0000   1.0000   1.0000   1.0000   1.0000   1.0000   1.0000   1.0000
     1.0628   1.0635   1.0635   1.0482   1.0482   1.0482   0.1777   0.1698
     0.1698   0.0000   0.0000   0.0000   0.0000   0.0000   0.0000   0.0000
     0.0000   0.0000   0.0000   0.0000   0.0000   0.0000   0.0000   0.0000

          k = 0.3333 0.5774 0.1684 ( 11352 PWs)   bands (ev):

   -92.7195 -92.7195 -92.7175 -56.0460 -56.0454 -56.0454 -56.0134 -56.0127
   -56.0127 -55.8340 -55.8340 -55.8316 -52.2287 -24.1471 -24.1471 -24.1066
   -15.7346 -15.7332 -15.7332 -14.8830 -14.8825 -14.8825  -3.1124  -3.1097
    -3.1097  -2.2865  -2.2809  -2.2809  -1.9275  -1.9275  -1.9260  -1.2143
    -1.1980  -1.1980  -0.3088  -0.3088  -0.3073   0.8671   0.8671   0.8727
     1.9651   1.9676   1.9676   2.1531   2.1531   2.1531   2.5572   2.5611
     2.5611   3.9198   4.0411   4.0411   4.4672   4.8049   4.8049   4.8050
     4.9039   4.9039   7.6823   8.5982   8.5982  11.3304  11.7959  11.7960

     occupation numbers 
     1.0000   1.0000   1.0000   1.0000   1.0000   1.0000   1.0000   1.0000
     1.0000   1.0000   1.0000   1.0000   1.0000   1.0000   1.0000   1.0000
     1.0000   1.0000   1.0000   1.0000   1.0000   1.0000   1.0000   1.0000
     1.0000   1.0000   1.0000   1.0000   1.0000   1.0000   1.0000   1.0000
     1.0000   1.0000   1.0000   1.0000   1.0000   1.0000   1.0000   1.0000
     1.0624   1.0633   1.0633   1.0482   1.0482   1.0482   0.1737   0.1677
     0.1677   0.0000   0.0000   0.0000   0.0000   0.0000   0.0000   0.0000
     0.0000   0.0000   0.0000   0.0000   0.0000   0.0000   0.0000   0.0000

          k =-0.1667-0.2887 0.1684 ( 11359 PWs)   bands (ev):

   -92.7216 -92.7182 -92.7167 -56.0526 -56.0524 -56.0238 -56.0236 -56.0169
   -56.0061 -55.8377 -55.8319 -55.8301 -52.2287 -24.1470 -24.1468 -24.1067
   -16.4299 -15.3103 -15.3099 -14.9598 -14.9598 -14.8095  -3.2403  -3.2401
    -2.7060  -2.5534  -2.5487  -2.3732  -2.2697  -1.6198  -1.6159  -1.0480
    -1.0451  -0.8066  -0.8003  -0.4239   0.2654   0.3578   0.3596   1.0805
     1.8458   1.9927   1.9936   2.0673   2.0677   2.1054   2.5304   2.5315
     2.6577   2.9729   4.3024   4.3083   4.3373   4.5060   4.5067   4.8689
     6.4465   6.4631   6.7328   9.7913   9.9293  10.2115  10.5260  10.7269

     occupation numbers 
     1.0000   1.0000   1.0000   1.0000   1.0000   1.0000   1.0000   1.0000
     1.0000   1.0000   1.0000   1.0000   1.0000   1.0000   1.0000   1.0000
     1.0000   1.0000   1.0000   1.0000   1.0000   1.0000   1.0000   1.0000
     1.0000   1.0000   1.0000   1.0000   1.0000   1.0000   1.0000   1.0000
     1.0000   1.0000   1.0000   1.0000   1.0000   1.0000   1.0000   1.0000
     1.0249   1.0712   1.0715   1.0832   1.0832   1.0763   0.2186   0.2166
     0.0625   0.0005   0.0000   0.0000   0.0000   0.0000   0.0000   0.0000
     0.0000   0.0000   0.0000   0.0000   0.0000   0.0000   0.0000   0.0000

          k =-0.1667-0.4811 0.1684 ( 11345 PWs)   bands (ev):

   -92.7203 -92.7189 -92.7172 -56.0556 -56.0453 -56.0316 -56.0166 -56.0162
   -56.0102 -55.8355 -55.8332 -55.8309 -52.2287 -24.1472 -24.1469 -24.1067
   -16.0837 -15.6734 -15.3835 -14.9697 -14.8847 -14.8354  -3.5041  -3.0010
    -2.8437  -2.4428  -2.2898  -2.1811  -2.0493  -1.8107  -1.7709  -1.2011
    -1.1376  -0.9438  -0.6679  -0.4640  -0.2158   0.4929   0.8509   1.1849
     1.9131   1.9445   1.9671   1.9963   2.2914   2.3017   2.3811   2.5445
     2.7608   3.5175   4.0588   4.1298   4.2965   4.5872   4.7363   4.8041
     4.9222   6.1904   7.2213   8.5955   9.8905   9.9825  10.6281  11.6355

     occupation numbers 
     1.0000   1.0000   1.0000   1.0000   1.0000   1.0000   1.0000   1.0000
     1.0000   1.0000   1.0000   1.0000   1.0000   1.0000   1.0000   1.0000
     1.0000   1.0000   1.0000   1.0000   1.0000   1.0000   1.0000   1.0000
     1.0000   1.0000   1.0000   1.0000   1.0000   1.0000   1.0000   1.0000
     1.0000   1.0000   1.0000   1.0000   1.0000   1.0000   1.0000   1.0000
     1.0446   1.0553   1.0631   1.0723   0.8158   0.7904   0.5769   0.1941
     0.0168   0.0000   0.0000   0.0000   0.0000   0.0000   0.0000   0.0000
     0.0000   0.0000   0.0000   0.0000   0.0000   0.0000   0.0000   0.0000

          k =-0.3333-0.5774 0.1684 ( 11352 PWs)   bands (ev):

   -92.7195 -92.7195 -92.7175 -56.0460 -56.0454 -56.0454 -56.0134 -56.0127
   -56.0127 -55.8340 -55.8340 -55.8316 -52.2287 -24.1471 -24.1471 -24.1066
   -15.7346 -15.7332 -15.7332 -14.8830 -14.8825 -14.8825  -3.1124  -3.1097
    -3.1097  -2.2866  -2.2809  -2.2809  -1.9275  -1.9275  -1.9260  -1.2141
    -1.1979  -1.1979  -0.3088  -0.3088  -0.3072   0.8663   0.8663   0.8717
     1.9653   1.9677   1.9677   2.1531   2.1531   2.1531   2.5531   2.5591
     2.5591   4.0235   4.0754   4.0754   4.3415   4.8049   4.8049   4.8050
     4.8540   4.8540   7.7642   8.6832   8.6832  11.1039  11.5263  11.5264

     occupation numbers 
     1.0000   1.0000   1.0000   1.0000   1.0000   1.0000   1.0000   1.0000
     1.0000   1.0000   1.0000   1.0000   1.0000   1.0000   1.0000   1.0000
     1.0000   1.0000   1.0000   1.0000   1.0000   1.0000   1.0000   1.0000
     1.0000   1.0000   1.0000   1.0000   1.0000   1.0000   1.0000   1.0000
     1.0000   1.0000   1.0000   1.0000   1.0000   1.0000   1.0000   1.0000
     1.0625   1.0633   1.0633   1.0482   1.0482   1.0482   0.1802   0.1708
     0.1708   0.0000   0.0000   0.0000   0.0000   0.0000   0.0000   0.0000
     0.0000   0.0000   0.0000   0.0000   0.0000   0.0000   0.0000   0.0000

     the Fermi energy is     2.4470 ev

!    total energy              =   -1489.14024013 Ry
     total all-electron energy =     -9588.375048 Ry
     estimated scf accuracy    <       0.00000006 Ry
     smearing contrib. (-TS)   =       0.00900450 Ry
     internal energy E=F+TS    =   -1489.14924463 Ry

     The total energy is F=E-TS. E is the sum of the following terms:
     one-electron contribution =   -2421.32068702 Ry
     hartree contribution      =    1237.33991928 Ry
     xc contribution           =    -150.33951356 Ry
     ewald contribution        =     180.69695301 Ry
     one-center paw contrib.   =    -335.52591634 Ry
      -> PAW hartree energy AE =     882.77058521 Ry
      -> PAW hartree energy PS =    -880.49903969 Ry
      -> PAW xc energy AE      =    -480.12848682 Ry
      -> PAW xc energy PS      =     142.33102495 Ry
      -> total E_H with PAW    =    1239.61146480 Ry
      -> total E_XC with PAW   =    -488.13697543 Ry

     total magnetization       =     2.52 Bohr mag/cell
     absolute magnetization    =     2.65 Bohr mag/cell

     convergence has been achieved in  24 iterations

     Forces acting on atoms (cartesian axes, Ry/au):

     atom    1 type  1   force =     0.00000000    0.00000000    0.00000000
     atom    2 type  1   force =    -0.00000000   -0.00000000    0.00000000
     atom    3 type  1   force =     0.00000000    0.00000000    0.00000000
     atom    4 type  2   force =    -0.00029100   -0.00050402   -0.02354285
     atom    5 type  2   force =     0.00058199    0.00000000   -0.02354285
     atom    6 type  2   force =    -0.00029100    0.00050402   -0.02354285
     atom    7 type  2   force =    -0.00058199   -0.00000000    0.02354285
     atom    8 type  2   force =     0.00029100    0.00050402    0.02354285
     atom    9 type  2   force =     0.00029100   -0.00050402    0.02354285
     atom   10 type  3   force =     0.00000000    0.00000000    0.00000000
     The non-local contrib.  to forces
     atom    1 type  1   force =     0.00000000   -0.00000000    0.00000000
     atom    2 type  1   force =     0.00000000    0.00000000    0.00000000
     atom    3 type  1   force =     0.00000000    0.00000000    0.00000000
     atom    4 type  2   force =    -0.00246033   -0.00426142   -1.17451927
     atom    5 type  2   force =     0.00492066   -0.00000000   -1.17451927
     atom    6 type  2   force =    -0.00246033    0.00426142   -1.17451927
     atom    7 type  2   force =    -0.00492066    0.00000000    1.17451927
     atom    8 type  2   force =     0.00246033    0.00426142    1.17451927
     atom    9 type  2   force =     0.00246033   -0.00426142    1.17451927
     atom   10 type  3   force =     0.00000000    0.00000000    0.00000000
     The ionic contribution  to forces
     atom    1 type  1   force =    -0.00000000   -0.00000000    0.00000000
     atom    2 type  1   force =     0.00000002   -0.00000001   -0.00000000
     atom    3 type  1   force =    -0.00000002    0.00000001   -0.00000000
     atom    4 type  2   force =     0.04270445    0.07396627   38.41907758
     atom    5 type  2   force =    -0.08540889   -0.00000000   38.41907759
     atom    6 type  2   force =     0.04270444   -0.07396627   38.41907759
     atom    7 type  2   force =     0.08540889    0.00000000  -38.41907759
     atom    8 type  2   force =    -0.04270445   -0.07396627  -38.41907758
     atom    9 type  2   force =    -0.04270444    0.07396627  -38.41907759
     atom   10 type  3   force =    -0.00000000   -0.00000000    0.00000000
     The local contribution  to forces
     atom    1 type  1   force =     0.00000000    0.00000000    0.00000000
     atom    2 type  1   force =     0.00000021   -0.00000012    0.00000000
     atom    3 type  1   force =    -0.00000021    0.00000012    0.00000000
     atom    4 type  2   force =    -0.04058532   -0.07029583  -37.27842512
     atom    5 type  2   force =     0.08117063    0.00000000  -37.27842512
     atom    6 type  2   force =    -0.04058532    0.07029583  -37.27842512
     atom    7 type  2   force =    -0.08117063   -0.00000000   37.27842512
     atom    8 type  2   force =     0.04058532    0.07029583   37.27842512
     atom    9 type  2   force =     0.04058532   -0.07029583   37.27842512
     atom   10 type  3   force =     0.00000000    0.00000000    0.00000000
     The core correction contribution to forces
     atom    1 type  1   force =    -0.00000000    0.00000000    0.00000000
     atom    2 type  1   force =     0.00000000   -0.00000000   -0.00000000
     atom    3 type  1   force =    -0.00000000    0.00000000   -0.00000000
     atom    4 type  2   force =     0.00002251    0.00003899    0.01034313
     atom    5 type  2   force =    -0.00004502    0.00000000    0.01034313
     atom    6 type  2   force =     0.00002251   -0.00003899    0.01034313
     atom    7 type  2   force =     0.00004502   -0.00000000   -0.01034313
     atom    8 type  2   force =    -0.00002251   -0.00003899   -0.01034313
     atom    9 type  2   force =    -0.00002251    0.00003899   -0.01034313
     atom   10 type  3   force =     0.00000000    0.00000000    0.00000000
     The Hubbard contrib.    to forces
     atom    1 type  1   force =     0.00000000    0.00000000    0.00000000
     atom    2 type  1   force =     0.00000000    0.00000000    0.00000000
     atom    3 type  1   force =     0.00000000    0.00000000    0.00000000
     atom    4 type  2   force =     0.00000000    0.00000000    0.00000000
     atom    5 type  2   force =     0.00000000    0.00000000    0.00000000
     atom    6 type  2   force =     0.00000000    0.00000000    0.00000000
     atom    7 type  2   force =     0.00000000    0.00000000    0.00000000
     atom    8 type  2   force =     0.00000000    0.00000000    0.00000000
     atom    9 type  2   force =     0.00000000    0.00000000    0.00000000
     atom   10 type  3   force =     0.00000000    0.00000000    0.00000000
     The SCF correction term to forces
     atom    1 type  1   force =    -0.00000000    0.00000000    0.00000000
     atom    2 type  1   force =    -0.00000000    0.00000000    0.00000000
     atom    3 type  1   force =     0.00000000   -0.00000000    0.00000000
     atom    4 type  2   force =     0.00002770    0.00004797   -0.00001917
     atom    5 type  2   force =    -0.00005539    0.00000000   -0.00001917
     atom    6 type  2   force =     0.00002770   -0.00004797   -0.00001917
     atom    7 type  2   force =     0.00005539   -0.00000000    0.00001917
     atom    8 type  2   force =    -0.00002770   -0.00004797    0.00001917
     atom    9 type  2   force =    -0.00002770    0.00004797    0.00001917
     atom   10 type  3   force =    -0.00000000   -0.00000000    0.00000000

     Total force =     0.057686     Total SCF correction =     0.000144

     Writing all to output data dir ./out/pw.save/ :
     XML data file, charge density, pseudopotentials, collected wavefunctions
 
     init_run     :     22.39s CPU      5.15s WALL (       1 calls)
     electrons    :    313.80s CPU     76.18s WALL (       1 calls)
     forces       :      1.02s CPU      0.94s WALL (       1 calls)

     Called by init_run:
     wfcinit      :      0.57s CPU      0.76s WALL (       1 calls)
     wfcinit:atom :      0.06s CPU      0.06s WALL (      34 calls)
     wfcinit:wfcr :      0.35s CPU      0.39s WALL (      34 calls)
     potinit      :     21.09s CPU      3.57s WALL (       1 calls)
     hinit0       :      0.56s CPU      0.55s WALL (       1 calls)

     Called by electrons:
     c_bands      :     32.44s CPU     32.56s WALL (      24 calls)
     sum_band     :      5.70s CPU      5.65s WALL (      24 calls)
     v_of_rho     :      0.65s CPU      0.44s WALL (      25 calls)
     v_h          :      0.38s CPU      0.11s WALL (      25 calls)
     v_xc         :      0.29s CPU      0.35s WALL (      26 calls)
     newd         :      0.64s CPU      0.59s WALL (      25 calls)
                                        0.59s GPU  (      25 calls)
     PAW_pot      :    282.70s CPU     36.62s WALL (      25 calls)
     mix_rho      :      1.37s CPU      1.33s WALL (      24 calls)

     Called by c_bands:
     init_us_2    :      1.10s CPU      1.05s WALL (    1700 calls)
     cegterg      :     25.95s CPU     26.04s WALL (     816 calls)

     Called by sum_band:
     sum_band:wei :      0.05s CPU      0.05s WALL (      24 calls)
                                        0.05s GPU  (      24 calls)
     sum_band:loo :      4.17s CPU      4.11s WALL (      24 calls)
                                        4.11s GPU  (      24 calls)
     sum_band:buf :      1.35s CPU      1.38s WALL (     816 calls)
                                        1.37s GPU  (     816 calls)
     sum_band:ini :      0.53s CPU      0.52s WALL (     816 calls)
                                        0.51s GPU  (     816 calls)
     sum_band:cal :      0.12s CPU      0.16s WALL (     816 calls)
                                        0.11s GPU  (     816 calls)
     sum_band:bec :      0.42s CPU      0.43s WALL (     816 calls)
                                        0.42s GPU  (     816 calls)
     addusdens    :      0.97s CPU      0.98s WALL (      24 calls)
                                        0.98s GPU  (      24 calls)
     addusd:skk   :      0.01s CPU      0.01s WALL (      72 calls)
                                        0.01s GPU  (      72 calls)

     Called by *egterg:
     cdiaghg      :     10.17s CPU     10.28s WALL (    4692 calls)
                                       10.23s GPU  (    4692 calls)
     cegterg:over :      1.41s CPU      1.43s WALL (    3876 calls)
     cegterg:upda :      1.23s CPU      1.23s WALL (    3876 calls)
     cegterg:last :      0.26s CPU      0.26s WALL (    1623 calls)
     h_psi        :     10.25s CPU     10.38s WALL (    4726 calls)
                                       10.32s GPU  (    4726 calls)
     s_psi        :      1.47s CPU      1.52s WALL (    4726 calls)
     g_psi        :      0.02s CPU      0.16s WALL (    3876 calls)
                                        0.11s GPU  (    3876 calls)

     Called by h_psi:
     h_psi:calbec :      0.21s CPU      0.46s WALL (    4726 calls)
                                        0.40s GPU  (    4726 calls)
     vloc_psi     :      7.91s CPU      7.91s WALL (    4726 calls)
                                        7.85s GPU  (    4726 calls)
     add_vuspsi   :      1.39s CPU      1.65s WALL (    4726 calls)
                                        1.59s GPU  (    4726 calls)

     General routines
     calbec       :      0.27s CPU      0.31s WALL (    5678 calls)
     fft          :      7.10s CPU      1.21s WALL (     638 calls)
                                        0.04s GPU  (     588 calls)
     ffts         :      3.48s CPU      0.93s WALL (    1123 calls)
                                        0.04s GPU  (    1073 calls)
     fftw         :      0.42s CPU      5.10s WALL (   23320 calls)
                                        4.83s GPU  (   23320 calls)
     interpolate  :     10.93s CPU      2.17s WALL (      50 calls)
 
     Parallel routines

     PAW routines
     PAW_pot      :    282.70s CPU     36.62s WALL (      25 calls)
     PAW_symme    :      0.06s CPU      0.02s WALL (      49 calls)
 
     PWSCF        :   5m38.12s CPU   1m23.01s WALL

 
   This run was terminated on:   2:48:51  12Jul2026            

=------------------------------------------------------------------------------=
   JOB DONE.
=------------------------------------------------------------------------------=
Warning: ieee_divide_by_zero is signaling
Warning: ieee_inexact is signaling
FORTRAN STOP
