
     Program PWSCF v.7.3.1 starts on 12Jul2026 at  2:21:14 

     This program is part of the open-source Quantum ESPRESSO suite
     for quantum simulation of materials; please cite
         "P. Giannozzi et al., J. Phys.:Condens. Matter 21 395502 (2009);
         "P. Giannozzi et al., J. Phys.:Condens. Matter 29 465901 (2017);
         "P. Giannozzi et al., J. Chem. Phys. 152 154105 (2020);
          URL http://www.quantum-espresso.org", 
     in publications or presentations arising from this work. More details at
     http://www.quantum-espresso.org/quote

     Parallel version (MPI & OpenMP), running on      14 processor cores
     Number of MPI processes:                 1
     Threads/MPI process:                    14

     MPI processes distributed on     1 nodes
     849247 MiB available memory on the printing compute node when the environment starts
 
     Reading input from pw.in

     Current dimensions of program PWSCF are:
     Max number of different atomic species (ntypx) = 10
     Max number of k-points (npk) =  40000
     Max angular momentum in pseudopotentials (lmaxx) =  4
     file Co.pbe-spn-kjpaw_psl.0.3.1.UPF: wavefunction(s)  3P 3D renormalized
     file O.pbe-n-kjpaw_psl.1.0.0.UPF: wavefunction(s)  2S 2P renormalized
     file Na.pbe-spn-kjpaw_psl.1.0.0.UPF: wavefunction(s)  2P renormalized
 
     Subspace diagonalization in iterative solution of the eigenvalue problem:
     a serial algorithm will be used

 
     G-vector sticks info
     --------------------
     sticks:   dense  smooth     PW     G-vecs:    dense   smooth      PW
     Sum        2941    1483    421               142753    50601    7659
 
     Using Slab Decomposition
 


     bravais-lattice index     =            4
     lattice parameter (alat)  =       9.4527  a.u.
     unit-cell volume          =     804.2768 (a.u.)^3
     number of atoms/cell      =           10
     number of atomic types    =            3
     number of electrons       =        96.00
     number of Kohn-Sham states=           64
     kinetic-energy cutoff     =      60.0000  Ry
     charge density cutoff     =     480.0000  Ry
     scf convergence threshold =      1.0E-08
     mixing beta               =       0.3000
     number of iterations used =            8  plain     mixing
     Exchange-correlation= SLA  PW   PBX  PBC
                           (   1   4   3   4   0   0   0)

     GPU acceleration is ACTIVE.  1 visible GPUs per MPI rank
     GPU-aware MPI enabled


     GPU used by master process:

        Device Number: 0
        Device name: NVIDIA A100-SXM4-80GB
        Compute capability : 80
        Ratio of single to double precision performance  : 2
        Memory Clock Rate (KHz): 1593000
        Memory Bus Width (bits): 5120
        Peak Memory Bandwidth (GB/s): ******

     celldm(1)=   9.452718  celldm(2)=   0.000000  celldm(3)=   1.099524
     celldm(4)=   0.000000  celldm(5)=   0.000000  celldm(6)=   0.000000

     crystal axes: (cart. coord. in units of alat)
               a(1) = (   1.000000   0.000000   0.000000 )  
               a(2) = (  -0.500000   0.866025   0.000000 )  
               a(3) = (   0.000000   0.000000   1.099524 )  

     reciprocal axes: (cart. coord. in units 2 pi/alat)
               b(1) = (  1.000000  0.577350 -0.000000 )  
               b(2) = (  0.000000  1.154701  0.000000 )  
               b(3) = (  0.000000 -0.000000  0.909484 )  


     PseudoPot. # 1 for Co read from file:
     ../../pseudo/Co.pbe-spn-kjpaw_psl.0.3.1.UPF
     MD5 check sum: 3c0a43779828c046024e4f3be63f8e67
     Pseudo is Projector augmented-wave + core cor, Zval = 17.0
     Generated using &quot;atomic&quot; code by A. Dal Corso  v.6.2.2
     Shape of augmentation charge: PSQ
     Using radial grid of 1193 points,  6 beta functions with: 
                l(1) =   0
                l(2) =   0
                l(3) =   1
                l(4) =   1
                l(5) =   2
                l(6) =   2
     Q(r) pseudized with 0 coefficients 


     PseudoPot. # 2 for O  read from file:
     ../../pseudo/O.pbe-n-kjpaw_psl.1.0.0.UPF
     MD5 check sum: e99d9cef9b487d1ca56f5b95ecd0fd7a
     Pseudo is Projector augmented-wave + core cor, Zval =  6.0
     Generated using &quot;atomic&quot; code by A. Dal Corso  v.6.3
     Shape of augmentation charge: PSQ
     Using radial grid of 1095 points,  4 beta functions with: 
                l(1) =   0
                l(2) =   0
                l(3) =   1
                l(4) =   1
     Q(r) pseudized with 0 coefficients 


     PseudoPot. # 3 for Na read from file:
     ../../pseudo/Na.pbe-spn-kjpaw_psl.1.0.0.UPF
     MD5 check sum: 05b4deb74e3932c23ab016979dc8b5d4
     Pseudo is Projector augmented-wave + core cor, Zval =  9.0
     Generated using &quot;atomic&quot; code by A. Dal Corso  v.6.3
     Shape of augmentation charge: PSQ
     Using radial grid of 1121 points,  4 beta functions with: 
                l(1) =   0
                l(2) =   0
                l(3) =   1
                l(4) =   1
     Q(r) pseudized with 0 coefficients 


     atomic species   valence    mass     pseudopotential
     Co               17.00    58.93300     Co( 1.00)
     O                 6.00    15.99900     O ( 1.00)
     Na                9.00    22.98977     Na( 1.00)

     Starting magnetic structure 
     atomic species   magnetization
     Co              0.300
     O               0.000
     Na              0.000

      6 Sym. Ops. (no inversion) found ( 4 have fractional translation)


                                    s                        frac. trans.

      isym =  1     identity                                     

 cryst.   s( 1) = (     1          0          0      )
                  (     0          1          0      )
                  (     0          0          1      )

 cart.    s( 1) = (  1.0000000  0.0000000  0.0000000 )
                  (  0.0000000  1.0000000  0.0000000 )
                  (  0.0000000  0.0000000  1.0000000 )


      isym =  2     120 deg rotation - cryst. axis [0,0,1]       

 cryst.   s( 2) = (     0          1          0      )    f =(  0.3333333 )
                  (    -1         -1          0      )       ( -0.3333333 )
                  (     0          0          1      )       (  0.0000000 )

 cart.    s( 2) = ( -0.5000000 -0.8660254  0.0000000 )    f =(  0.5000000 )
                  (  0.8660254 -0.5000000  0.0000000 )       ( -0.2886751 )
                  (  0.0000000  0.0000000  1.0000000 )       (  0.0000000 )


      isym =  3     120 deg rotation - cryst. axis [0,0,-1]      

 cryst.   s( 3) = (    -1         -1          0      )    f =( -0.3333333 )
                  (     1          0          0      )       (  0.3333333 )
                  (     0          0          1      )       (  0.0000000 )

 cart.    s( 3) = ( -0.5000000  0.8660254  0.0000000 )    f =( -0.5000000 )
                  ( -0.8660254 -0.5000000  0.0000000 )       (  0.2886751 )
                  (  0.0000000  0.0000000  1.0000000 )       (  0.0000000 )


      isym =  4     inv. 180 deg rotation - cart. axis [0,1,0]   

 cryst.   s( 4) = (     1          0          0      )    f =( -0.3333333 )
                  (    -1         -1          0      )       (  0.3333333 )
                  (     0          0          1      )       (  0.0000000 )

 cart.    s( 4) = (  1.0000000  0.0000000  0.0000000 )    f =( -0.5000000 )
                  (  0.0000000 -1.0000000  0.0000000 )       (  0.2886751 )
                  (  0.0000000  0.0000000  1.0000000 )       (  0.0000000 )


      isym =  5     inv. 180 deg rotation - cryst. axis [1,-1,0] 

 cryst.   s( 5) = (     0          1          0      )
                  (     1          0          0      )
                  (     0          0          1      )

 cart.    s( 5) = ( -0.5000000  0.8660254  0.0000000 )
                  (  0.8660254  0.5000000  0.0000000 )
                  (  0.0000000  0.0000000  1.0000000 )


      isym =  6     inv. 180 deg rotation - cryst. axis [2,1,0]  

 cryst.   s( 6) = (    -1         -1          0      )    f =(  0.3333333 )
                  (     0          1          0      )       ( -0.3333333 )
                  (     0          0          1      )       (  0.0000000 )

 cart.    s( 6) = ( -0.5000000 -0.8660254  0.0000000 )    f =(  0.5000000 )
                  ( -0.8660254  0.5000000  0.0000000 )       ( -0.2886751 )
                  (  0.0000000  0.0000000  1.0000000 )       (  0.0000000 )


     point group C_3v (3m)  
     there are  3 classes
     the character table:

       E     2C3   3s_v 
A_1    1.00  1.00  1.00
A_2    1.00  1.00 -1.00
E      2.00 -1.00  0.00

     the symmetry operations in each class and the name of the first element:

     E        1
          identity                                               
     2C3      2    3
          120 deg rotation - cryst. axis [0,0,1]                 
     3s_v     4    6    5
          inv. 180 deg rotation - cart. axis [0,1,0]             

   Cartesian axes

     site n.     atom                  positions (alat units)
         1        Co     tau(   1) = (   0.0000000   0.0000000   0.0000000  )
         2        Co     tau(   2) = (  -0.0000000   0.5773503   0.0000000  )
         3        Co     tau(   3) = (   0.5000000   0.2886751   0.0000000  )
         4        O      tau(   4) = (   0.1666667   0.2886751   0.1919170  )
         5        O      tau(   5) = (   0.6666667   0.0000000   0.1919170  )
         6        O      tau(   6) = (  -0.3333333   0.5773503   0.1919170  )
         7        O      tau(   7) = (   0.3333333   0.0000000   0.9076074  )
         8        O      tau(   8) = (   0.3333333   0.5773503   0.9076074  )
         9        O      tau(   9) = (  -0.1666667   0.2886751   0.9076074  )
        10        Na     tau(  10) = (   0.1666667   0.2886751   0.5497622  )

   Crystallographic axes

     site n.     atom                  positions (cryst. coord.)
         1        Co     tau(   1) = (  0.0000000  0.0000000  0.0000000  )
         2        Co     tau(   2) = (  0.3333333  0.6666667  0.0000000  )
         3        Co     tau(   3) = (  0.6666667  0.3333333  0.0000000  )
         4        O      tau(   4) = (  0.3333333  0.3333333  0.1745455  )
         5        O      tau(   5) = (  0.6666667  0.0000000  0.1745455  )
         6        O      tau(   6) = (  0.0000000  0.6666667  0.1745455  )
         7        O      tau(   7) = (  0.3333333  0.0000000  0.8254545  )
         8        O      tau(   8) = (  0.6666667  0.6666667  0.8254545  )
         9        O      tau(   9) = ( -0.0000000  0.3333333  0.8254545  )
        10        Na     tau(  10) = (  0.3333333  0.3333333  0.5000000  )

     number of k points=    17  Marzari-Vanderbilt smearing, width (Ry)=  0.0200
                       cart. coord. in units 2pi/alat
        k(    1) = (   0.0000000   0.0000000   0.0000000), wk =   0.0092593
        k(    2) = (   0.0000000   0.0000000   0.3031614), wk =   0.0185185
        k(    3) = (   0.0000000   0.1924501   0.0000000), wk =   0.0555556
        k(    4) = (   0.0000000   0.1924501   0.3031614), wk =   0.1111111
        k(    5) = (   0.0000000   0.3849002   0.0000000), wk =   0.0555556
        k(    6) = (   0.0000000   0.3849002   0.3031614), wk =   0.1111111
        k(    7) = (   0.0000000  -0.5773503   0.0000000), wk =   0.0277778
        k(    8) = (   0.0000000  -0.5773503   0.3031614), wk =   0.0555556
        k(    9) = (   0.1666667   0.2886751   0.0000000), wk =   0.0555556
        k(   10) = (   0.1666667   0.2886751   0.3031614), wk =   0.0555556
        k(   11) = (   0.1666667   0.4811252   0.0000000), wk =   0.1111111
        k(   12) = (   0.1666667   0.4811252   0.3031614), wk =   0.1111111
        k(   13) = (   0.3333333   0.5773503   0.0000000), wk =   0.0185185
        k(   14) = (   0.3333333   0.5773503   0.3031614), wk =   0.0185185
        k(   15) = (  -0.1666667  -0.2886751   0.3031614), wk =   0.0555556
        k(   16) = (  -0.1666667  -0.4811252   0.3031614), wk =   0.1111111
        k(   17) = (  -0.3333333  -0.5773503   0.3031614), wk =   0.0185185

                       cryst. coord.
        k(    1) = (   0.0000000   0.0000000   0.0000000), wk =   0.0092593
        k(    2) = (   0.0000000   0.0000000   0.3333333), wk =   0.0185185
        k(    3) = (   0.0000000   0.1666667   0.0000000), wk =   0.0555556
        k(    4) = (   0.0000000   0.1666667   0.3333333), wk =   0.1111111
        k(    5) = (   0.0000000   0.3333333   0.0000000), wk =   0.0555556
        k(    6) = (   0.0000000   0.3333333   0.3333333), wk =   0.1111111
        k(    7) = (   0.0000000  -0.5000000   0.0000000), wk =   0.0277778
        k(    8) = (   0.0000000  -0.5000000   0.3333333), wk =   0.0555556
        k(    9) = (   0.1666667   0.1666667   0.0000000), wk =   0.0555556
        k(   10) = (   0.1666667   0.1666667   0.3333333), wk =   0.0555556
        k(   11) = (   0.1666667   0.3333333   0.0000000), wk =   0.1111111
        k(   12) = (   0.1666667   0.3333333   0.3333333), wk =   0.1111111
        k(   13) = (   0.3333333   0.3333333   0.0000000), wk =   0.0185185
        k(   14) = (   0.3333333   0.3333333   0.3333333), wk =   0.0185185
        k(   15) = (  -0.1666667  -0.1666667   0.3333333), wk =   0.0555556
        k(   16) = (  -0.1666667  -0.3333333   0.3333333), wk =   0.1111111
        k(   17) = (  -0.3333333  -0.3333333   0.3333333), wk =   0.0185185

     Dense  grid:   142753 G-vectors     FFT dimensions: (  72,  72,  75)

     Smooth grid:    50601 G-vectors     FFT dimensions: (  48,  48,  54)

     Dynamical RAM for                 wfc:       6.16 MB

     Dynamical RAM for     wfc (w. buffer):     215.74 MB

     Dynamical RAM for           str. fact:       6.53 MB

     Dynamical RAM for           local pot:       0.00 MB

     Dynamical RAM for          nlocal pot:      10.59 MB

     Dynamical RAM for                qrad:       5.27 MB

     Dynamical RAM for          rho,v,vnew:      30.87 MB

     Dynamical RAM for               rhoin:      10.29 MB

     Dynamical RAM for            rho*nmix:      69.70 MB

     Dynamical RAM for           G-vectors:       8.55 MB

     Dynamical RAM for          h,s,v(r/c):       0.75 MB

     Dynamical RAM for          <psi|beta>:       0.11 MB

     Dynamical RAM for                 psi:      12.33 MB

     Dynamical RAM for                hpsi:      12.33 MB

     Dynamical RAM for                spsi:      12.33 MB

     Dynamical RAM for      wfcinit/wfcrot:      12.42 MB

     Dynamical RAM for           addusdens:     420.40 MB

     Dynamical RAM for          addusforce:     442.23 MB

     Estimated static dynamical RAM per process >     314.37 MB

     Estimated max dynamical RAM per process >     826.30 MB

     Check: negative core charge=   -0.000009
     Generating pointlists ...
     new r_m :   0.1587 (alat units)  1.4998 (a.u.) for type    1
     new r_m :   0.1476 (alat units)  1.3953 (a.u.) for type    2
     new r_m :   0.1476 (alat units)  1.3953 (a.u.) for type    3

     Initial potential from superposition of free atoms

     starting charge      95.9928, renormalised to      96.0000
     Starting wfcs are   59 randomized atomic wfcs +    5 random wfcs
     Checking if some PAW data can be deallocated... 

     total cpu time spent up to now is        5.1 secs

     Self-consistent Calculation
[tb_dev] Currently allocated     9.94E-01 Mbytes, locked:    0 /   6
[tb_pin] Currently allocated     0.00E+00 Mbytes, locked:    0 /   0

     iteration #  1     ecut=    60.00 Ry     beta= 0.30
     Davidson diagonalization with overlap

---- Real-time Memory Report at c_bands before calling an iterative solver
           910 MiB given to the printing process from OS
             0 MiB allocation reported by mallinfo(arena+hblkhd)
        848506 MiB available memory on the node where the printing process lives
     GPU memory used/free/total (MiB): 1438 / 79712 / 81151
------------------
     ethr =  1.00E-02,  avg # of iterations =  9.9

     total cpu time spent up to now is        8.7 secs

     total energy              =   -1486.71417142 Ry
     estimated scf accuracy    <       6.19851469 Ry

     total magnetization       =    14.00 Bohr mag/cell
     absolute magnetization    =    14.00 Bohr mag/cell
[tb_dev] Currently allocated     7.63E-05 Mbytes, locked:    0 /   2
[tb_pin] Currently allocated     0.00E+00 Mbytes, locked:    0 /   0

     iteration #  2     ecut=    60.00 Ry     beta= 0.30
     Davidson diagonalization with overlap

---- Real-time Memory Report at c_bands before calling an iterative solver
           969 MiB given to the printing process from OS
             0 MiB allocation reported by mallinfo(arena+hblkhd)
        848466 MiB available memory on the node where the printing process lives
     GPU memory used/free/total (MiB): 1484 / 79666 / 81151
------------------
     ethr =  6.46E-03,  avg # of iterations =  2.0

     total cpu time spent up to now is       11.2 secs

     total energy              =   -1487.39661073 Ry
     estimated scf accuracy    <      17.79069586 Ry

     total magnetization       =     1.75 Bohr mag/cell
     absolute magnetization    =     2.06 Bohr mag/cell
[tb_dev] Currently allocated     7.63E-05 Mbytes, locked:    0 /   2
[tb_pin] Currently allocated     0.00E+00 Mbytes, locked:    0 /   0

     iteration #  3     ecut=    60.00 Ry     beta= 0.30
     Davidson diagonalization with overlap

---- Real-time Memory Report at c_bands before calling an iterative solver
           977 MiB given to the printing process from OS
             0 MiB allocation reported by mallinfo(arena+hblkhd)
        848468 MiB available memory on the node where the printing process lives
     GPU memory used/free/total (MiB): 1484 / 79666 / 81151
------------------
     ethr =  6.46E-03,  avg # of iterations =  1.0

     total cpu time spent up to now is       13.4 secs

     total energy              =   -1488.81886244 Ry
     estimated scf accuracy    <       0.38848817 Ry

     total magnetization       =     9.06 Bohr mag/cell
     absolute magnetization    =     9.06 Bohr mag/cell
[tb_dev] Currently allocated     7.63E-05 Mbytes, locked:    0 /   2
[tb_pin] Currently allocated     0.00E+00 Mbytes, locked:    0 /   0

     iteration #  4     ecut=    60.00 Ry     beta= 0.30
     Davidson diagonalization with overlap

---- Real-time Memory Report at c_bands before calling an iterative solver
           981 MiB given to the printing process from OS
             0 MiB allocation reported by mallinfo(arena+hblkhd)
        848418 MiB available memory on the node where the printing process lives
     GPU memory used/free/total (MiB): 1484 / 79666 / 81151
------------------
     ethr =  4.05E-04,  avg # of iterations =  5.4

     total cpu time spent up to now is       16.4 secs

     total energy              =   -1488.99590648 Ry
     estimated scf accuracy    <       0.92214509 Ry

     total magnetization       =     4.99 Bohr mag/cell
     absolute magnetization    =     5.47 Bohr mag/cell
[tb_dev] Currently allocated     7.63E-05 Mbytes, locked:    0 /   2
[tb_pin] Currently allocated     0.00E+00 Mbytes, locked:    0 /   0

     iteration #  5     ecut=    60.00 Ry     beta= 0.30
     Davidson diagonalization with overlap

---- Real-time Memory Report at c_bands before calling an iterative solver
           984 MiB given to the printing process from OS
             0 MiB allocation reported by mallinfo(arena+hblkhd)
        848376 MiB available memory on the node where the printing process lives
     GPU memory used/free/total (MiB): 1484 / 79666 / 81151
------------------
     ethr =  4.05E-04,  avg # of iterations =  1.8

     total cpu time spent up to now is       18.8 secs

     total energy              =   -1489.08692414 Ry
     estimated scf accuracy    <       0.57509315 Ry

     total magnetization       =     4.60 Bohr mag/cell
     absolute magnetization    =     5.25 Bohr mag/cell
[tb_dev] Currently allocated     7.63E-05 Mbytes, locked:    0 /   2
[tb_pin] Currently allocated     0.00E+00 Mbytes, locked:    0 /   0

     iteration #  6     ecut=    60.00 Ry     beta= 0.30
     Davidson diagonalization with overlap

---- Real-time Memory Report at c_bands before calling an iterative solver
           988 MiB given to the printing process from OS
             0 MiB allocation reported by mallinfo(arena+hblkhd)
        848305 MiB available memory on the node where the printing process lives
     GPU memory used/free/total (MiB): 1484 / 79666 / 81151
------------------
     ethr =  4.05E-04,  avg # of iterations =  1.6

     total cpu time spent up to now is       21.1 secs

     total energy              =   -1489.22451129 Ry
     estimated scf accuracy    <       0.25077945 Ry

     total magnetization       =     2.81 Bohr mag/cell
     absolute magnetization    =     4.09 Bohr mag/cell
[tb_dev] Currently allocated     7.63E-05 Mbytes, locked:    0 /   2
[tb_pin] Currently allocated     0.00E+00 Mbytes, locked:    0 /   0

     iteration #  7     ecut=    60.00 Ry     beta= 0.30
     Davidson diagonalization with overlap

---- Real-time Memory Report at c_bands before calling an iterative solver
           991 MiB given to the printing process from OS
             0 MiB allocation reported by mallinfo(arena+hblkhd)
        848284 MiB available memory on the node where the printing process lives
     GPU memory used/free/total (MiB): 1484 / 79666 / 81151
------------------
     ethr =  2.61E-04,  avg # of iterations =  2.3

     total cpu time spent up to now is       23.6 secs

     total energy              =   -1489.27122105 Ry
     estimated scf accuracy    <       0.05898755 Ry

     total magnetization       =     2.05 Bohr mag/cell
     absolute magnetization    =     2.73 Bohr mag/cell
[tb_dev] Currently allocated     7.63E-05 Mbytes, locked:    0 /   2
[tb_pin] Currently allocated     0.00E+00 Mbytes, locked:    0 /   0

     iteration #  8     ecut=    60.00 Ry     beta= 0.30
     Davidson diagonalization with overlap

---- Real-time Memory Report at c_bands before calling an iterative solver
          1004 MiB given to the printing process from OS
             0 MiB allocation reported by mallinfo(arena+hblkhd)
        848255 MiB available memory on the node where the printing process lives
     GPU memory used/free/total (MiB): 1484 / 79666 / 81151
------------------
     c_bands:  2 eigenvalues not converged
     c_bands:  1 eigenvalues not converged
     c_bands:  1 eigenvalues not converged
     c_bands:  1 eigenvalues not converged
     c_bands:  1 eigenvalues not converged
     ethr =  6.14E-05,  avg # of iterations = 11.7

     total cpu time spent up to now is       27.5 secs

     total energy              =   -1489.27481697 Ry
     estimated scf accuracy    <       0.07809022 Ry

     total magnetization       =     2.31 Bohr mag/cell
     absolute magnetization    =     2.51 Bohr mag/cell
[tb_dev] Currently allocated     7.63E-05 Mbytes, locked:    0 /   2
[tb_pin] Currently allocated     0.00E+00 Mbytes, locked:    0 /   0

     iteration #  9     ecut=    60.00 Ry     beta= 0.30
     Davidson diagonalization with overlap

---- Real-time Memory Report at c_bands before calling an iterative solver
          1004 MiB given to the printing process from OS
             0 MiB allocation reported by mallinfo(arena+hblkhd)
        848209 MiB available memory on the node where the printing process lives
     GPU memory used/free/total (MiB): 1484 / 79666 / 81151
------------------
     ethr =  6.14E-05,  avg # of iterations =  1.6

     total cpu time spent up to now is       29.8 secs

     total energy              =   -1489.28499536 Ry
     estimated scf accuracy    <       0.03372353 Ry

     total magnetization       =     2.04 Bohr mag/cell
     absolute magnetization    =     2.48 Bohr mag/cell
[tb_dev] Currently allocated     7.63E-05 Mbytes, locked:    0 /   2
[tb_pin] Currently allocated     0.00E+00 Mbytes, locked:    0 /   0

     iteration # 10     ecut=    60.00 Ry     beta= 0.30
     Davidson diagonalization with overlap

---- Real-time Memory Report at c_bands before calling an iterative solver
          1010 MiB given to the printing process from OS
             0 MiB allocation reported by mallinfo(arena+hblkhd)
        848173 MiB available memory on the node where the printing process lives
     GPU memory used/free/total (MiB): 1484 / 79666 / 81151
------------------
     ethr =  3.51E-05,  avg # of iterations =  2.0

     total cpu time spent up to now is       32.2 secs

     total energy              =   -1489.29226140 Ry
     estimated scf accuracy    <       0.00728491 Ry

     total magnetization       =     2.23 Bohr mag/cell
     absolute magnetization    =     2.26 Bohr mag/cell
[tb_dev] Currently allocated     7.63E-05 Mbytes, locked:    0 /   2
[tb_pin] Currently allocated     0.00E+00 Mbytes, locked:    0 /   0

     iteration # 11     ecut=    60.00 Ry     beta= 0.30
     Davidson diagonalization with overlap

---- Real-time Memory Report at c_bands before calling an iterative solver
          1010 MiB given to the printing process from OS
             0 MiB allocation reported by mallinfo(arena+hblkhd)
        848151 MiB available memory on the node where the printing process lives
     GPU memory used/free/total (MiB): 1484 / 79666 / 81151
------------------
     c_bands:  1 eigenvalues not converged
     c_bands:  1 eigenvalues not converged
     c_bands:  1 eigenvalues not converged
     c_bands:  1 eigenvalues not converged
     c_bands:  1 eigenvalues not converged
     c_bands:  1 eigenvalues not converged
     c_bands:  1 eigenvalues not converged
     c_bands:  1 eigenvalues not converged
     c_bands:  1 eigenvalues not converged
     ethr =  7.59E-06,  avg # of iterations = 12.5

     total cpu time spent up to now is       36.3 secs

     total energy              =   -1489.29380403 Ry
     estimated scf accuracy    <       0.00430289 Ry

     total magnetization       =     2.31 Bohr mag/cell
     absolute magnetization    =     2.34 Bohr mag/cell
[tb_dev] Currently allocated     7.63E-05 Mbytes, locked:    0 /   2
[tb_pin] Currently allocated     0.00E+00 Mbytes, locked:    0 /   0

     iteration # 12     ecut=    60.00 Ry     beta= 0.30
     Davidson diagonalization with overlap

---- Real-time Memory Report at c_bands before calling an iterative solver
          1010 MiB given to the printing process from OS
             0 MiB allocation reported by mallinfo(arena+hblkhd)
        848597 MiB available memory on the node where the printing process lives
     GPU memory used/free/total (MiB): 1484 / 79666 / 81151
------------------
     c_bands:  1 eigenvalues not converged
     ethr =  4.48E-06,  avg # of iterations =  6.3

     total cpu time spent up to now is       39.4 secs

     total energy              =   -1489.29498778 Ry
     estimated scf accuracy    <       0.00215638 Ry

     total magnetization       =     2.36 Bohr mag/cell
     absolute magnetization    =     2.39 Bohr mag/cell
[tb_dev] Currently allocated     7.63E-05 Mbytes, locked:    0 /   2
[tb_pin] Currently allocated     0.00E+00 Mbytes, locked:    0 /   0

     iteration # 13     ecut=    60.00 Ry     beta= 0.30
     Davidson diagonalization with overlap

---- Real-time Memory Report at c_bands before calling an iterative solver
          1010 MiB given to the printing process from OS
             0 MiB allocation reported by mallinfo(arena+hblkhd)
        848204 MiB available memory on the node where the printing process lives
     GPU memory used/free/total (MiB): 1484 / 79666 / 81151
------------------
     ethr =  2.25E-06,  avg # of iterations =  2.1

     total cpu time spent up to now is       41.9 secs

     total energy              =   -1489.29532573 Ry
     estimated scf accuracy    <       0.00076514 Ry

     total magnetization       =     2.34 Bohr mag/cell
     absolute magnetization    =     2.37 Bohr mag/cell
[tb_dev] Currently allocated     7.63E-05 Mbytes, locked:    0 /   2
[tb_pin] Currently allocated     0.00E+00 Mbytes, locked:    0 /   0

     iteration # 14     ecut=    60.00 Ry     beta= 0.30
     Davidson diagonalization with overlap

---- Real-time Memory Report at c_bands before calling an iterative solver
          1010 MiB given to the printing process from OS
             0 MiB allocation reported by mallinfo(arena+hblkhd)
        847618 MiB available memory on the node where the printing process lives
     GPU memory used/free/total (MiB): 1484 / 79666 / 81151
------------------
     ethr =  7.97E-07,  avg # of iterations =  3.3

     total cpu time spent up to now is       44.5 secs

     total energy              =   -1489.29540032 Ry
     estimated scf accuracy    <       0.00016034 Ry

     total magnetization       =     2.27 Bohr mag/cell
     absolute magnetization    =     2.31 Bohr mag/cell
[tb_dev] Currently allocated     7.63E-05 Mbytes, locked:    0 /   2
[tb_pin] Currently allocated     0.00E+00 Mbytes, locked:    0 /   0

     iteration # 15     ecut=    60.00 Ry     beta= 0.30
     Davidson diagonalization with overlap

---- Real-time Memory Report at c_bands before calling an iterative solver
          1010 MiB given to the printing process from OS
             0 MiB allocation reported by mallinfo(arena+hblkhd)
        847590 MiB available memory on the node where the printing process lives
     GPU memory used/free/total (MiB): 1484 / 79666 / 81151
------------------
     ethr =  1.67E-07,  avg # of iterations =  7.9

     total cpu time spent up to now is       48.0 secs

     total energy              =   -1489.29548997 Ry
     estimated scf accuracy    <       0.00002719 Ry

     total magnetization       =     2.30 Bohr mag/cell
     absolute magnetization    =     2.34 Bohr mag/cell
[tb_dev] Currently allocated     7.63E-05 Mbytes, locked:    0 /   2
[tb_pin] Currently allocated     0.00E+00 Mbytes, locked:    0 /   0

     iteration # 16     ecut=    60.00 Ry     beta= 0.30
     Davidson diagonalization with overlap

---- Real-time Memory Report at c_bands before calling an iterative solver
          1010 MiB given to the printing process from OS
             0 MiB allocation reported by mallinfo(arena+hblkhd)
        847648 MiB available memory on the node where the printing process lives
     GPU memory used/free/total (MiB): 1484 / 79666 / 81151
------------------
     c_bands:  1 eigenvalues not converged
     ethr =  2.83E-08,  avg # of iterations =  7.2

     total cpu time spent up to now is       51.4 secs

     total energy              =   -1489.29550583 Ry
     estimated scf accuracy    <       0.00000436 Ry

     total magnetization       =     2.29 Bohr mag/cell
     absolute magnetization    =     2.33 Bohr mag/cell
[tb_dev] Currently allocated     7.63E-05 Mbytes, locked:    0 /   2
[tb_pin] Currently allocated     0.00E+00 Mbytes, locked:    0 /   0

     iteration # 17     ecut=    60.00 Ry     beta= 0.30
     Davidson diagonalization with overlap

---- Real-time Memory Report at c_bands before calling an iterative solver
          1010 MiB given to the printing process from OS
             0 MiB allocation reported by mallinfo(arena+hblkhd)
        847592 MiB available memory on the node where the printing process lives
     GPU memory used/free/total (MiB): 1484 / 79666 / 81151
------------------
     c_bands:  1 eigenvalues not converged
     ethr =  4.54E-09,  avg # of iterations =  7.0

     total cpu time spent up to now is       54.7 secs

     total energy              =   -1489.29550867 Ry
     estimated scf accuracy    <       0.00000116 Ry

     total magnetization       =     2.30 Bohr mag/cell
     absolute magnetization    =     2.34 Bohr mag/cell
[tb_dev] Currently allocated     7.63E-05 Mbytes, locked:    0 /   2
[tb_pin] Currently allocated     0.00E+00 Mbytes, locked:    0 /   0

     iteration # 18     ecut=    60.00 Ry     beta= 0.30
     Davidson diagonalization with overlap

---- Real-time Memory Report at c_bands before calling an iterative solver
          1010 MiB given to the printing process from OS
             0 MiB allocation reported by mallinfo(arena+hblkhd)
        847571 MiB available memory on the node where the printing process lives
     GPU memory used/free/total (MiB): 1484 / 79666 / 81151
------------------
     c_bands:  1 eigenvalues not converged
     ethr =  1.21E-09,  avg # of iterations =  5.5

     total cpu time spent up to now is       57.7 secs

     total energy              =   -1489.29550944 Ry
     estimated scf accuracy    <       0.00000063 Ry

     total magnetization       =     2.30 Bohr mag/cell
     absolute magnetization    =     2.34 Bohr mag/cell
[tb_dev] Currently allocated     7.63E-05 Mbytes, locked:    0 /   2
[tb_pin] Currently allocated     0.00E+00 Mbytes, locked:    0 /   0

     iteration # 19     ecut=    60.00 Ry     beta= 0.30
     Davidson diagonalization with overlap

---- Real-time Memory Report at c_bands before calling an iterative solver
          1010 MiB given to the printing process from OS
             0 MiB allocation reported by mallinfo(arena+hblkhd)
        847544 MiB available memory on the node where the printing process lives
     GPU memory used/free/total (MiB): 1484 / 79666 / 81151
------------------
     ethr =  6.55E-10,  avg # of iterations =  3.9

     total cpu time spent up to now is       60.5 secs

     total energy              =   -1489.29550980 Ry
     estimated scf accuracy    <       0.00000013 Ry

     total magnetization       =     2.30 Bohr mag/cell
     absolute magnetization    =     2.34 Bohr mag/cell
[tb_dev] Currently allocated     7.63E-05 Mbytes, locked:    0 /   2
[tb_pin] Currently allocated     0.00E+00 Mbytes, locked:    0 /   0

     iteration # 20     ecut=    60.00 Ry     beta= 0.30
     Davidson diagonalization with overlap

---- Real-time Memory Report at c_bands before calling an iterative solver
          1010 MiB given to the printing process from OS
             0 MiB allocation reported by mallinfo(arena+hblkhd)
        847530 MiB available memory on the node where the printing process lives
     GPU memory used/free/total (MiB): 1484 / 79666 / 81151
------------------
     ethr =  1.34E-10,  avg # of iterations =  7.4

     total cpu time spent up to now is       63.9 secs

     total energy              =   -1489.29550990 Ry
     estimated scf accuracy    <       0.00000005 Ry

     total magnetization       =     2.30 Bohr mag/cell
     absolute magnetization    =     2.34 Bohr mag/cell
[tb_dev] Currently allocated     7.63E-05 Mbytes, locked:    0 /   2
[tb_pin] Currently allocated     0.00E+00 Mbytes, locked:    0 /   0

     iteration # 21     ecut=    60.00 Ry     beta= 0.30
     Davidson diagonalization with overlap

---- Real-time Memory Report at c_bands before calling an iterative solver
          1010 MiB given to the printing process from OS
             0 MiB allocation reported by mallinfo(arena+hblkhd)
        847511 MiB available memory on the node where the printing process lives
     GPU memory used/free/total (MiB): 1484 / 79666 / 81151
------------------
     ethr =  5.27E-11,  avg # of iterations =  4.7

     total cpu time spent up to now is       66.8 secs

     total energy              =   -1489.29550994 Ry
     estimated scf accuracy    <       0.00000002 Ry

     total magnetization       =     2.30 Bohr mag/cell
     absolute magnetization    =     2.34 Bohr mag/cell
[tb_dev] Currently allocated     7.63E-05 Mbytes, locked:    0 /   2
[tb_pin] Currently allocated     0.00E+00 Mbytes, locked:    0 /   0

     iteration # 22     ecut=    60.00 Ry     beta= 0.30
     Davidson diagonalization with overlap

---- Real-time Memory Report at c_bands before calling an iterative solver
          1010 MiB given to the printing process from OS
             0 MiB allocation reported by mallinfo(arena+hblkhd)
        847493 MiB available memory on the node where the printing process lives
     GPU memory used/free/total (MiB): 1484 / 79666 / 81151
------------------
     ethr =  2.12E-11,  avg # of iterations =  4.3
 
     Magnetic moment per site  (integrated on atomic sphere of radius R)
     atom   1 (R=0.159)  charge= 14.1000  magn=  0.5862
     atom   2 (R=0.159)  charge= 14.1000  magn=  0.5862
     atom   3 (R=0.159)  charge= 14.1000  magn=  0.5862
     atom   4 (R=0.148)  charge=  4.9641  magn=  0.0370
     atom   5 (R=0.148)  charge=  4.8719  magn=  0.0751
     atom   6 (R=0.148)  charge=  4.8719  magn=  0.0751
     atom   7 (R=0.148)  charge=  4.8885  magn=  0.0568
     atom   8 (R=0.148)  charge=  4.8885  magn=  0.0568
     atom   9 (R=0.148)  charge=  4.8885  magn=  0.0568
     atom  10 (R=0.148)  charge=  7.5526  magn=  0.0014

     total cpu time spent up to now is       69.6 secs

     End of self-consistent calculation

 ------ SPIN UP ------------


          k = 0.0000 0.0000 0.0000 (  6307 PWs)   bands (ev):

   -89.4411 -89.4355 -89.4355 -52.6914 -52.6860 -52.6860 -52.6808 -52.6634
   -52.6599 -52.6599 -52.6415 -52.6415 -43.3619 -15.6303 -15.2883 -15.2883
   -12.9629 -11.2771 -11.2771 -11.2571 -11.1996 -10.9586   0.6543   0.9262
     0.9415   0.9415   1.0522   1.2310   1.2310   1.3518   1.3518   2.8514
     2.9646   2.9646   3.0829   3.3324   3.3324   4.6845   4.7337   4.7337
     4.7693   4.7693   4.9079   4.9079   5.8244   5.8284   5.8284   5.8539
     5.9588   7.8517   7.8769   7.8769   7.9360   8.6494   8.6494  11.6009
    15.8115  17.2957  17.5913  17.5913  18.5522  18.5522  19.3311  19.8054

     occupation numbers 
     1.0000   1.0000   1.0000   1.0000   1.0000   1.0000   1.0000   1.0000
     1.0000   1.0000   1.0000   1.0000   1.0000   1.0000   1.0000   1.0000
     1.0000   1.0000   1.0000   1.0000   1.0000   1.0000   1.0000   1.0000
     1.0000   1.0000   1.0000   1.0000   1.0000   1.0000   1.0000   1.0000
     1.0000   1.0000   1.0000   1.0000   1.0000   1.0000   1.0000   1.0000
     1.0000   1.0000   1.0000   1.0000   1.0217   1.0226   1.0226   1.0290
     1.0629   0.0000   0.0000   0.0000   0.0000   0.0000   0.0000   0.0000
     0.0000   0.0000   0.0000   0.0000   0.0000   0.0000   0.0000   0.0000

          k = 0.0000 0.0000 0.3032 (  6332 PWs)   bands (ev):

   -89.4411 -89.4356 -89.4356 -52.6913 -52.6860 -52.6860 -52.6807 -52.6632
   -52.6601 -52.6601 -52.6417 -52.6417 -43.3620 -15.6516 -15.2882 -15.2882
   -12.8730 -11.2772 -11.2772 -11.2647 -11.1993 -11.0342   0.8285   0.8959
     0.9241   0.9241   1.0281   1.2277   1.2277   1.3710   1.3710   2.8994
     2.9860   2.9860   3.1066   3.2997   3.2997   4.2324   4.7366   4.7366
     4.7695   4.7695   4.9080   4.9080   5.8024   5.8150   5.8150   5.8382
     6.0535   7.9237   7.9271   7.9271   7.9915   8.6508   8.6508  12.4491
    14.8137  17.3808  17.3808  17.4154  18.5718  18.5718  19.4245  20.0851

     occupation numbers 
     1.0000   1.0000   1.0000   1.0000   1.0000   1.0000   1.0000   1.0000
     1.0000   1.0000   1.0000   1.0000   1.0000   1.0000   1.0000   1.0000
     1.0000   1.0000   1.0000   1.0000   1.0000   1.0000   1.0000   1.0000
     1.0000   1.0000   1.0000   1.0000   1.0000   1.0000   1.0000   1.0000
     1.0000   1.0000   1.0000   1.0000   1.0000   1.0000   1.0000   1.0000
     1.0000   1.0000   1.0000   1.0000   1.0172   1.0197   1.0197   1.0249
     1.0833   0.0000   0.0000   0.0000   0.0000   0.0000   0.0000   0.0000
     0.0000   0.0000   0.0000   0.0000   0.0000   0.0000   0.0000   0.0000

          k = 0.0000 0.1925 0.0000 (  6330 PWs)   bands (ev):

   -89.4407 -89.4358 -89.4357 -52.6967 -52.6904 -52.6783 -52.6746 -52.6616
   -52.6611 -52.6604 -52.6453 -52.6425 -43.3620 -15.6303 -15.2890 -15.2885
   -12.8591 -11.4191 -11.3277 -11.2287 -11.1665 -10.9653   0.5263   0.7651
     0.7942   0.9623   1.0832   1.1605   1.3065   1.7259   1.9142   2.6304
     2.7130   2.7939   2.9442   3.6086   3.7192   4.0749   4.2018   4.8156
     4.8538   4.8931   5.1518   5.3594   5.5630   5.5848   5.9322   6.0024
     6.0074   7.8582   7.9202   7.9471   8.0031   8.3900   8.5760  11.9613
    16.2040  16.7447  17.2367  17.4957  18.1232  18.9247  19.6613  19.8467

     occupation numbers 
     1.0000   1.0000   1.0000   1.0000   1.0000   1.0000   1.0000   1.0000
     1.0000   1.0000   1.0000   1.0000   1.0000   1.0000   1.0000   1.0000
     1.0000   1.0000   1.0000   1.0000   1.0000   1.0000   1.0000   1.0000
     1.0000   1.0000   1.0000   1.0000   1.0000   1.0000   1.0000   1.0000
     1.0000   1.0000   1.0000   1.0000   1.0000   1.0000   1.0000   1.0000
     1.0000   1.0000   1.0000   1.0000   1.0005   1.0008   1.0537   1.0760
     1.0772   0.0000   0.0000   0.0000   0.0000   0.0000   0.0000   0.0000
     0.0000   0.0000   0.0000   0.0000   0.0000   0.0000   0.0000   0.0000

          k = 0.0000 0.1925 0.3032 (  6320 PWs)   bands (ev):

   -89.4407 -89.4358 -89.4357 -52.6966 -52.6904 -52.6783 -52.6746 -52.6614
   -52.6611 -52.6605 -52.6453 -52.6425 -43.3620 -15.6496 -15.2887 -15.2882
   -12.7742 -11.4025 -11.3216 -11.2478 -11.1765 -11.0367   0.4948   0.7581
     0.9025   0.9807   1.0641   1.1458   1.3042   1.7354   1.9166   2.6288
     2.7024   2.8570   2.9618   3.6411   3.7269   4.0754   4.1709   4.5063
     4.8204   4.8879   5.1513   5.3470   5.5652   5.5888   5.9024   5.9713
     6.1124   7.9162   7.9566   7.9795   8.0470   8.3690   8.5802  12.7276
    15.1667  16.5350  16.9138  17.7732  18.1621  18.9938  19.6214  19.8401

     occupation numbers 
     1.0000   1.0000   1.0000   1.0000   1.0000   1.0000   1.0000   1.0000
     1.0000   1.0000   1.0000   1.0000   1.0000   1.0000   1.0000   1.0000
     1.0000   1.0000   1.0000   1.0000   1.0000   1.0000   1.0000   1.0000
     1.0000   1.0000   1.0000   1.0000   1.0000   1.0000   1.0000   1.0000
     1.0000   1.0000   1.0000   1.0000   1.0000   1.0000   1.0000   1.0000
     1.0000   1.0000   1.0000   1.0000   1.0006   1.0008   1.0436   1.0670
     1.0703   0.0000   0.0000   0.0000   0.0000   0.0000   0.0000   0.0000
     0.0000   0.0000   0.0000   0.0000   0.0000   0.0000   0.0000   0.0000

          k = 0.0000 0.3849 0.0000 (  6318 PWs)   bands (ev):

   -89.4395 -89.4367 -89.4361 -52.7012 -52.6892 -52.6701 -52.6691 -52.6661
   -52.6617 -52.6579 -52.6505 -52.6449 -43.3619 -15.6299 -15.2901 -15.2889
   -12.5705 -11.7379 -11.3768 -11.2680 -11.0941 -10.9872   0.1171   0.9026
     0.9567   1.0314   1.1202   1.3401   1.4696   1.9399   2.2130   2.4266
     2.5589   2.6589   3.0323   3.0946   3.5595   3.8723   4.2984   4.9136
     5.0514   5.2272   5.2961   5.3193   5.3435   5.7432   5.7842   5.9837
     6.0716   7.8821   7.9252   7.9528   7.9810   8.3129   8.3656  12.8627
    15.3542  16.8740  17.1274  17.3858  18.0575  18.9989  19.1757  19.4869

     occupation numbers 
     1.0000   1.0000   1.0000   1.0000   1.0000   1.0000   1.0000   1.0000
     1.0000   1.0000   1.0000   1.0000   1.0000   1.0000   1.0000   1.0000
     1.0000   1.0000   1.0000   1.0000   1.0000   1.0000   1.0000   1.0000
     1.0000   1.0000   1.0000   1.0000   1.0000   1.0000   1.0000   1.0000
     1.0000   1.0000   1.0000   1.0000   1.0000   1.0000   1.0000   1.0000
     1.0000   1.0000   1.0000   1.0000   1.0000   1.0085   1.0140   1.0708
     1.0823   0.0000   0.0000   0.0000   0.0000   0.0000   0.0000   0.0000
     0.0000   0.0000   0.0000   0.0000   0.0000   0.0000   0.0000   0.0000

          k = 0.0000 0.3849 0.3032 (  6304 PWs)   bands (ev):

   -89.4395 -89.4367 -89.4360 -52.7010 -52.6894 -52.6700 -52.6690 -52.6661
   -52.6618 -52.6578 -52.6505 -52.6449 -43.3619 -15.6458 -15.2894 -15.2884
   -12.4984 -11.7047 -11.3650 -11.2873 -11.1277 -11.0443   0.0837   0.8458
     0.8805   0.9918   1.2966   1.3113   1.4663   1.9507   2.1935   2.5090
     2.5996   2.6537   3.0502   3.1156   3.5575   3.9775   4.3055   4.8367
     4.9181   5.2276   5.3018   5.3264   5.3547   5.7000   5.7597   6.0200
     6.0829   7.8420   7.8855   7.9622   8.0115   8.3267   8.3873  13.3902
    15.2841  16.0702  16.3363  17.5141  18.4896  18.7781  19.2359  19.7985

     occupation numbers 
     1.0000   1.0000   1.0000   1.0000   1.0000   1.0000   1.0000   1.0000
     1.0000   1.0000   1.0000   1.0000   1.0000   1.0000   1.0000   1.0000
     1.0000   1.0000   1.0000   1.0000   1.0000   1.0000   1.0000   1.0000
     1.0000   1.0000   1.0000   1.0000   1.0000   1.0000   1.0000   1.0000
     1.0000   1.0000   1.0000   1.0000   1.0000   1.0000   1.0000   1.0000
     1.0000   1.0000   1.0000   1.0000   1.0000   1.0048   1.0105   1.0799
     1.0805   0.0000   0.0000   0.0000   0.0000   0.0000   0.0000   0.0000
     0.0000   0.0000   0.0000   0.0000   0.0000   0.0000   0.0000   0.0000

          k = 0.0000-0.5774 0.0000 (  6336 PWs)   bands (ev):

   -89.4381 -89.4380 -89.4362 -52.7029 -52.6828 -52.6763 -52.6662 -52.6646
   -52.6640 -52.6576 -52.6491 -52.6474 -43.3620 -15.6298 -15.2908 -15.2891
   -12.2013 -12.1208 -11.3947 -11.2907 -11.0422 -11.0193  -0.0324   0.9071
     0.9164   1.3514   1.3544   1.5756   1.6579   1.7496   1.8808   2.3504
     2.3766   2.5992   2.9667   3.0235   3.4337   3.9544   4.8317   4.8465
     4.9325   5.1870   5.2462   5.2626   5.6297   5.7292   5.7643   5.9561
     6.0208   7.8042   7.8309   7.9660   8.0608   8.1063   8.5311  14.0165
    14.0513  16.7180  17.0725  18.0244  18.3051  18.7651  18.7769  18.8123

     occupation numbers 
     1.0000   1.0000   1.0000   1.0000   1.0000   1.0000   1.0000   1.0000
     1.0000   1.0000   1.0000   1.0000   1.0000   1.0000   1.0000   1.0000
     1.0000   1.0000   1.0000   1.0000   1.0000   1.0000   1.0000   1.0000
     1.0000   1.0000   1.0000   1.0000   1.0000   1.0000   1.0000   1.0000
     1.0000   1.0000   1.0000   1.0000   1.0000   1.0000   1.0000   1.0000
     1.0000   1.0000   1.0000   1.0000   1.0017   1.0071   1.0111   1.0619
     1.0800   0.0000   0.0000   0.0000   0.0000   0.0000   0.0000   0.0000
     0.0000   0.0000   0.0000   0.0000   0.0000   0.0000   0.0000   0.0000

          k = 0.0000-0.5774 0.3032 (  6310 PWs)   bands (ev):

   -89.4380 -89.4380 -89.4362 -52.7028 -52.6827 -52.6762 -52.6662 -52.6646
   -52.6640 -52.6577 -52.6492 -52.6474 -43.3619 -15.6440 -15.2899 -15.2886
   -12.1145 -12.1015 -11.3822 -11.3094 -11.1017 -11.0525  -0.0674   0.8016
     0.8467   1.3566   1.3654   1.5568   1.6912   1.8057   1.8803   2.4475
     2.4509   2.6219   2.9682   3.0194   3.4360   4.0977   4.7957   4.7985
     4.9202   5.1869   5.2522   5.2653   5.6138   5.7690   5.8050   5.9039
     5.9604   7.7013   7.7370   7.9639   8.1143   8.1621   8.5256  14.2141
    14.2708  16.0775  17.1801  17.2780  17.3356  18.8635  19.7162  19.9003

     occupation numbers 
     1.0000   1.0000   1.0000   1.0000   1.0000   1.0000   1.0000   1.0000
     1.0000   1.0000   1.0000   1.0000   1.0000   1.0000   1.0000   1.0000
     1.0000   1.0000   1.0000   1.0000   1.0000   1.0000   1.0000   1.0000
     1.0000   1.0000   1.0000   1.0000   1.0000   1.0000   1.0000   1.0000
     1.0000   1.0000   1.0000   1.0000   1.0000   1.0000   1.0000   1.0000
     1.0000   1.0000   1.0000   1.0000   1.0013   1.0117   1.0177   1.0441
     1.0634   0.0000   0.0000   0.0000   0.0000   0.0000   0.0000   0.0000
     0.0000   0.0000   0.0000   0.0000   0.0000   0.0000   0.0000   0.0000

          k = 0.1667 0.2887 0.0000 (  6317 PWs)   bands (ev):

   -89.4399 -89.4362 -89.4362 -52.6984 -52.6927 -52.6713 -52.6704 -52.6644
   -52.6611 -52.6586 -52.6499 -52.6439 -43.3619 -15.6299 -15.2898 -15.2888
   -12.6629 -11.5540 -11.5068 -11.1618 -11.1524 -10.9799   0.4361   0.4770
     0.9715   1.0432   1.1645   1.1873   1.4343   2.0704   2.1035   2.5414
     2.6004   2.7360   2.8135   3.2246   3.8810   3.9243   4.0229   4.9081
     5.0498   5.0522   5.3275   5.3858   5.3873   5.5843   5.9497   5.9525
     6.0146   7.8716   7.9071   7.9655   8.1144   8.1507   8.5021  12.5796
    16.1069  16.1548  16.8457  17.8627  18.5474  18.8288  19.2136  19.3320

     occupation numbers 
     1.0000   1.0000   1.0000   1.0000   1.0000   1.0000   1.0000   1.0000
     1.0000   1.0000   1.0000   1.0000   1.0000   1.0000   1.0000   1.0000
     1.0000   1.0000   1.0000   1.0000   1.0000   1.0000   1.0000   1.0000
     1.0000   1.0000   1.0000   1.0000   1.0000   1.0000   1.0000   1.0000
     1.0000   1.0000   1.0000   1.0000   1.0000   1.0000   1.0000   1.0000
     1.0000   1.0000   1.0000   1.0000   1.0000   1.0008   1.0597   1.0607
     1.0788   0.0000   0.0000   0.0000   0.0000   0.0000   0.0000   0.0000
     0.0000   0.0000   0.0000   0.0000   0.0000   0.0000   0.0000   0.0000

          k = 0.1667 0.2887 0.3032 (  6308 PWs)   bands (ev):

   -89.4399 -89.4362 -89.4362 -52.6983 -52.6926 -52.6712 -52.6703 -52.6645
   -52.6612 -52.6585 -52.6499 -52.6439 -43.3619 -15.6465 -15.2891 -15.2884
   -12.5880 -11.5275 -11.5043 -11.1925 -11.1553 -11.0425   0.3832   0.4592
     0.9111   1.1093   1.1578   1.2271   1.4319   2.0633   2.0878   2.5900
     2.6392   2.7547   2.8298   3.2447   3.8843   3.9966   4.0695   4.7093
     5.0407   5.0501   5.2468   5.3852   5.3938   5.5849   5.9255   5.9305
     6.1309   7.8481   7.8906   7.9077   8.1433   8.1810   8.5004  13.2519
    15.7305  16.0317  16.0733  18.1361  18.3053  18.4992  19.4241  19.4374

     occupation numbers 
     1.0000   1.0000   1.0000   1.0000   1.0000   1.0000   1.0000   1.0000
     1.0000   1.0000   1.0000   1.0000   1.0000   1.0000   1.0000   1.0000
     1.0000   1.0000   1.0000   1.0000   1.0000   1.0000   1.0000   1.0000
     1.0000   1.0000   1.0000   1.0000   1.0000   1.0000   1.0000   1.0000
     1.0000   1.0000   1.0000   1.0000   1.0000   1.0000   1.0000   1.0000
     1.0000   1.0000   1.0000   1.0000   1.0000   1.0008   1.0514   1.0531
     1.0595   0.0000   0.0000   0.0000   0.0000   0.0000   0.0000   0.0000
     0.0000   0.0000   0.0000   0.0000   0.0000   0.0000   0.0000   0.0000

          k = 0.1667 0.4811 0.0000 (  6294 PWs)   bands (ev):

   -89.4386 -89.4372 -89.4364 -52.6991 -52.6886 -52.6752 -52.6661 -52.6655
   -52.6626 -52.6578 -52.6494 -52.6460 -43.3619 -15.6296 -15.2904 -15.2891
   -12.3173 -11.8976 -11.6006 -11.1658 -11.0755 -11.0133   0.1918   0.6955
     0.8664   1.2766   1.3684   1.4376   1.6136   1.8877   1.9394   2.2784
     2.3773   2.5407   3.0178   3.2663   3.4419   4.0694   4.4874   4.8681
     5.0862   5.2717   5.2922   5.3465   5.4859   5.7138   5.7416   5.9067
     5.9456   7.6824   7.7709   7.8902   8.2312   8.3652   8.4590  13.5760
    14.7828  15.7346  17.7160  18.1824  18.4377  18.5942  18.7902  19.0223

     occupation numbers 
     1.0000   1.0000   1.0000   1.0000   1.0000   1.0000   1.0000   1.0000
     1.0000   1.0000   1.0000   1.0000   1.0000   1.0000   1.0000   1.0000
     1.0000   1.0000   1.0000   1.0000   1.0000   1.0000   1.0000   1.0000
     1.0000   1.0000   1.0000   1.0000   1.0000   1.0000   1.0000   1.0000
     1.0000   1.0000   1.0000   1.0000   1.0000   1.0000   1.0000   1.0000
     1.0000   1.0000   1.0000   1.0000   1.0001   1.0058   1.0084   1.0450
     1.0583   0.0000   0.0000   0.0000   0.0000   0.0000   0.0000   0.0000
     0.0000   0.0000   0.0000   0.0000   0.0000   0.0000   0.0000   0.0000

          k = 0.1667 0.4811 0.3032 (  6307 PWs)   bands (ev):

   -89.4386 -89.4372 -89.4365 -52.6992 -52.6886 -52.6751 -52.6662 -52.6655
   -52.6627 -52.6579 -52.6494 -52.6461 -43.3619 -15.6434 -15.2896 -15.2887
   -12.2570 -11.8637 -11.5904 -11.1856 -11.1096 -11.0556   0.1475   0.6232
     0.7797   1.2431   1.3825   1.4679   1.6291   1.8977   1.9312   2.3954
     2.4354   2.5890   3.0224   3.2700   3.4451   4.1921   4.5253   4.8283
     5.0761   5.2687   5.2891   5.3044   5.4949   5.7022   5.7300   5.9226
     5.9996   7.5477   7.6726   7.8340   8.2532   8.3729   8.4578  14.0231
    14.9463  15.7644  16.6691  17.5315  17.7090  18.9981  19.4313  19.7622

     occupation numbers 
     1.0000   1.0000   1.0000   1.0000   1.0000   1.0000   1.0000   1.0000
     1.0000   1.0000   1.0000   1.0000   1.0000   1.0000   1.0000   1.0000
     1.0000   1.0000   1.0000   1.0000   1.0000   1.0000   1.0000   1.0000
     1.0000   1.0000   1.0000   1.0000   1.0000   1.0000   1.0000   1.0000
     1.0000   1.0000   1.0000   1.0000   1.0000   1.0000   1.0000   1.0000
     1.0000   1.0000   1.0000   1.0000   1.0001   1.0049   1.0072   1.0504
     1.0753   0.0000   0.0000   0.0000   0.0000   0.0000   0.0000   0.0000
     0.0000   0.0000   0.0000   0.0000   0.0000   0.0000   0.0000   0.0000

          k = 0.3333 0.5774 0.0000 (  6294 PWs)   bands (ev):

   -89.4374 -89.4374 -89.4374 -52.6917 -52.6917 -52.6824 -52.6646 -52.6646
   -52.6628 -52.6584 -52.6471 -52.6471 -43.3619 -15.6297 -15.2898 -15.2898
   -12.0283 -11.9243 -11.9243 -11.0773 -11.0773 -11.0574   0.5503   0.6032
     0.6032   1.4133   1.4133   1.4497   1.7729   1.7729   1.8259   2.1016
     2.2745   2.2745   3.3500   3.3500   3.4335   4.4488   4.5085   4.5085
     5.2614   5.2935   5.2935   5.5226   5.5226   5.5336   5.7477   5.7885
     5.7885   7.6834   7.7211   7.7211   8.4250   8.4250   8.5055  14.5524
    14.5524  14.5570  18.0767  18.4030  18.4030  18.7404  18.7404  18.8081

     occupation numbers 
     1.0000   1.0000   1.0000   1.0000   1.0000   1.0000   1.0000   1.0000
     1.0000   1.0000   1.0000   1.0000   1.0000   1.0000   1.0000   1.0000
     1.0000   1.0000   1.0000   1.0000   1.0000   1.0000   1.0000   1.0000
     1.0000   1.0000   1.0000   1.0000   1.0000   1.0000   1.0000   1.0000
     1.0000   1.0000   1.0000   1.0000   1.0000   1.0000   1.0000   1.0000
     1.0000   1.0000   1.0000   1.0002   1.0002   1.0003   1.0090   1.0147
     1.0147   0.0000   0.0000   0.0000   0.0000   0.0000   0.0000   0.0000
     0.0000   0.0000   0.0000   0.0000   0.0000   0.0000   0.0000   0.0000

          k = 0.3333 0.5774 0.3032 (  6312 PWs)   bands (ev):

   -89.4374 -89.4374 -89.4374 -52.6918 -52.6918 -52.6826 -52.6646 -52.6646
   -52.6628 -52.6584 -52.6472 -52.6472 -43.3619 -15.6422 -15.2893 -15.2893
   -11.9310 -11.9198 -11.9198 -11.1413 -11.0840 -11.0840   0.4318   0.5572
     0.5572   1.3936   1.3936   1.4001   1.7703   1.7703   1.8218   2.2733
     2.3736   2.3736   3.3491   3.3491   3.4405   4.5314   4.5509   4.5509
     5.2365   5.2689   5.2689   5.5227   5.5227   5.5368   5.7889   5.8276
     5.8276   7.5475   7.5952   7.5952   8.4232   8.4232   8.4944  14.8089
    14.8350  14.8350  17.2513  17.3787  17.3787  19.5150  19.5370  19.5371

     occupation numbers 
     1.0000   1.0000   1.0000   1.0000   1.0000   1.0000   1.0000   1.0000
     1.0000   1.0000   1.0000   1.0000   1.0000   1.0000   1.0000   1.0000
     1.0000   1.0000   1.0000   1.0000   1.0000   1.0000   1.0000   1.0000
     1.0000   1.0000   1.0000   1.0000   1.0000   1.0000   1.0000   1.0000
     1.0000   1.0000   1.0000   1.0000   1.0000   1.0000   1.0000   1.0000
     1.0000   1.0000   1.0000   1.0003   1.0003   1.0003   1.0148   1.0224
     1.0224   0.0000   0.0000   0.0000   0.0000   0.0000   0.0000   0.0000
     0.0000   0.0000   0.0000   0.0000   0.0000   0.0000   0.0000   0.0000

          k =-0.1667-0.2887 0.3032 (  6308 PWs)   bands (ev):

   -89.4399 -89.4362 -89.4362 -52.6983 -52.6926 -52.6713 -52.6703 -52.6645
   -52.6612 -52.6585 -52.6499 -52.6439 -43.3619 -15.6471 -15.2891 -15.2885
   -12.5859 -11.5058 -11.5017 -11.2175 -11.1579 -11.0425   0.3891   0.4526
     0.9415   1.1198   1.1641   1.2009   1.4320   2.0660   2.0931   2.5771
     2.6273   2.7850   2.8527   3.2347   3.8841   3.9421   4.0413   4.7078
     5.0478   5.0577   5.2494   5.3896   5.3978   5.5847   5.9037   5.9123
     6.1019   7.9194   7.9493   7.9654   8.1242   8.1550   8.5043  13.1191
    15.7780  15.8246  15.8455  18.4290  18.5656  18.8426  19.2555  19.2581

     occupation numbers 
     1.0000   1.0000   1.0000   1.0000   1.0000   1.0000   1.0000   1.0000
     1.0000   1.0000   1.0000   1.0000   1.0000   1.0000   1.0000   1.0000
     1.0000   1.0000   1.0000   1.0000   1.0000   1.0000   1.0000   1.0000
     1.0000   1.0000   1.0000   1.0000   1.0000   1.0000   1.0000   1.0000
     1.0000   1.0000   1.0000   1.0000   1.0000   1.0000   1.0000   1.0000
     1.0000   1.0000   1.0000   1.0000   1.0000   1.0008   1.0440   1.0469
     1.0748   0.0000   0.0000   0.0000   0.0000   0.0000   0.0000   0.0000
     0.0000   0.0000   0.0000   0.0000   0.0000   0.0000   0.0000   0.0000

          k =-0.1667-0.4811 0.3032 (  6307 PWs)   bands (ev):

   -89.4386 -89.4372 -89.4365 -52.6992 -52.6886 -52.6751 -52.6662 -52.6655
   -52.6627 -52.6579 -52.6494 -52.6461 -43.3619 -15.6448 -15.2897 -15.2888
   -12.2512 -11.8534 -11.5705 -11.2168 -11.1151 -11.0571   0.1523   0.6385
     0.8055   1.2416   1.3904   1.4429   1.6228   1.8904   1.9300   2.4261
     2.4538   2.6216   3.0169   3.2697   3.4414   4.1123   4.4682   4.7861
     5.0950   5.2794   5.2922   5.3130   5.5023   5.6860   5.7281   5.8775
     5.9281   7.6748   7.7881   7.9153   8.2353   8.3704   8.4567  13.7816
    14.6693  15.3166  16.8667  17.9940  18.1875  18.8907  19.5171  19.8588

     occupation numbers 
     1.0000   1.0000   1.0000   1.0000   1.0000   1.0000   1.0000   1.0000
     1.0000   1.0000   1.0000   1.0000   1.0000   1.0000   1.0000   1.0000
     1.0000   1.0000   1.0000   1.0000   1.0000   1.0000   1.0000   1.0000
     1.0000   1.0000   1.0000   1.0000   1.0000   1.0000   1.0000   1.0000
     1.0000   1.0000   1.0000   1.0000   1.0000   1.0000   1.0000   1.0000
     1.0000   1.0000   1.0000   1.0000   1.0002   1.0039   1.0070   1.0357
     1.0523   0.0000   0.0000   0.0000   0.0000   0.0000   0.0000   0.0000
     0.0000   0.0000   0.0000   0.0000   0.0000   0.0000   0.0000   0.0000

          k =-0.3333-0.5774 0.3032 (  6312 PWs)   bands (ev):

   -89.4374 -89.4374 -89.4374 -52.6918 -52.6918 -52.6825 -52.6646 -52.6646
   -52.6628 -52.6585 -52.6472 -52.6472 -43.3619 -15.6442 -15.2894 -15.2894
   -11.9171 -11.9171 -11.8954 -11.1791 -11.0872 -11.0872   0.4690   0.5670
     0.5670   1.3831   1.3839   1.3839   1.7690   1.7690   1.8258   2.3081
     2.4063   2.4063   3.3508   3.3508   3.4333   4.4322   4.4798   4.4798
     5.2502   5.2904   5.2904   5.5224   5.5224   5.5358   5.7203   5.7607
     5.7607   7.7064   7.7386   7.7386   8.4242   8.4242   8.5011  14.4027
    14.4197  14.4197  17.6159  17.8176  17.8176  19.6200  19.6201  19.9920

     occupation numbers 
     1.0000   1.0000   1.0000   1.0000   1.0000   1.0000   1.0000   1.0000
     1.0000   1.0000   1.0000   1.0000   1.0000   1.0000   1.0000   1.0000
     1.0000   1.0000   1.0000   1.0000   1.0000   1.0000   1.0000   1.0000
     1.0000   1.0000   1.0000   1.0000   1.0000   1.0000   1.0000   1.0000
     1.0000   1.0000   1.0000   1.0000   1.0000   1.0000   1.0000   1.0000
     1.0000   1.0000   1.0000   1.0002   1.0002   1.0003   1.0063   1.0106
     1.0106   0.0000   0.0000   0.0000   0.0000   0.0000   0.0000   0.0000
     0.0000   0.0000   0.0000   0.0000   0.0000   0.0000   0.0000   0.0000

 ------ SPIN DOWN ----------


          k = 0.0000 0.0000 0.0000 (  6307 PWs)   bands (ev):

   -88.7236 -88.7178 -88.7178 -52.0449 -52.0433 -52.0433 -52.0417 -52.0033
   -52.0033 -51.8531 -51.8431 -51.8431 -43.3588 -15.6178 -15.2859 -15.2859
   -12.8645 -11.1710 -11.1710 -11.1657 -11.0610 -10.8506   0.9563   1.0690
     1.0835   1.0835   1.2082   1.4046   1.4046   1.4980   1.4980   3.1008
     3.2226   3.2226   3.3852   3.4106   3.4106   4.8675   4.9835   4.9835
     5.3513   5.3513   5.7398   5.7398   6.4001   6.4107   6.4107   6.4466
     6.8273   8.1662   8.1892   8.1892   8.2539   8.9589   8.9589  11.6596
    15.9103  17.4307  17.6292  17.6292  18.5901  18.5901  19.3770  19.8458

     occupation numbers 
     1.0000   1.0000   1.0000   1.0000   1.0000   1.0000   1.0000   1.0000
     1.0000   1.0000   1.0000   1.0000   1.0000   1.0000   1.0000   1.0000
     1.0000   1.0000   1.0000   1.0000   1.0000   1.0000   1.0000   1.0000
     1.0000   1.0000   1.0000   1.0000   1.0000   1.0000   1.0000   1.0000
     1.0000   1.0000   1.0000   1.0000   1.0000   1.0000   1.0000   1.0000
     1.0000   1.0000   1.0082   1.0082   0.5038   0.4753   0.4753   0.3828
     0.0055   0.0000   0.0000   0.0000   0.0000   0.0000   0.0000   0.0000
     0.0000   0.0000   0.0000   0.0000   0.0000   0.0000   0.0000   0.0000

          k = 0.0000 0.0000 0.3032 (  6332 PWs)   bands (ev):

   -88.7236 -88.7178 -88.7178 -52.0449 -52.0433 -52.0433 -52.0417 -52.0034
   -52.0034 -51.8529 -51.8433 -51.8433 -43.3589 -15.6382 -15.2858 -15.2858
   -12.7746 -11.1844 -11.1711 -11.1711 -11.0607 -10.9160   0.9859   1.0659
     1.0659   1.1840   1.2024   1.4086   1.4086   1.5098   1.5098   3.1483
     3.2453   3.2453   3.3768   3.3768   3.4091   4.4054   4.9832   4.9832
     5.3510   5.3510   5.7454   5.7454   6.3814   6.3988   6.3988   6.4324
     6.9034   8.2360   8.2394   8.2394   8.3099   8.9604   8.9604  12.5220
    14.9299  17.4015  17.4015  17.5073  18.6034  18.6035  19.4661  20.2589

     occupation numbers 
     1.0000   1.0000   1.0000   1.0000   1.0000   1.0000   1.0000   1.0000
     1.0000   1.0000   1.0000   1.0000   1.0000   1.0000   1.0000   1.0000
     1.0000   1.0000   1.0000   1.0000   1.0000   1.0000   1.0000   1.0000
     1.0000   1.0000   1.0000   1.0000   1.0000   1.0000   1.0000   1.0000
     1.0000   1.0000   1.0000   1.0000   1.0000   1.0000   1.0000   1.0000
     1.0000   1.0000   1.0088   1.0088   0.5551   0.5074   0.5074   0.4185
     0.0015   0.0000   0.0000   0.0000   0.0000   0.0000   0.0000   0.0000
     0.0000   0.0000   0.0000   0.0000   0.0000   0.0000   0.0000   0.0000

          k = 0.0000 0.1925 0.0000 (  6330 PWs)   bands (ev):

   -88.7232 -88.7181 -88.7180 -52.0527 -52.0496 -52.0334 -52.0314 -52.0084
   -52.0046 -51.8523 -51.8436 -51.8435 -43.3589 -15.6178 -15.2866 -15.2861
   -12.7604 -11.3171 -11.2199 -11.1215 -11.0422 -10.8569   0.6632   0.9037
     1.0845   1.1192   1.2298   1.3741   1.5236   1.8391   2.0373   2.8137
     2.8976   3.0618   3.2300   3.7634   3.9009   4.2889   4.4758   5.0295
     5.6431   5.7563   5.7952   5.8494   6.1737   6.1976   6.4847   6.5526
     6.8441   8.1688   8.2515   8.2632   8.3167   8.7044   8.8810  12.0178
    16.3023  16.7836  17.2726  17.6288  18.1685  18.9752  19.7663  19.8954

     occupation numbers 
     1.0000   1.0000   1.0000   1.0000   1.0000   1.0000   1.0000   1.0000
     1.0000   1.0000   1.0000   1.0000   1.0000   1.0000   1.0000   1.0000
     1.0000   1.0000   1.0000   1.0000   1.0000   1.0000   1.0000   1.0000
     1.0000   1.0000   1.0000   1.0000   1.0000   1.0000   1.0000   1.0000
     1.0000   1.0000   1.0000   1.0000   1.0000   1.0000   1.0000   1.0000
     1.0020   1.0101   1.0159   1.0278   1.0194   0.9874   0.2944   0.1693
     0.0042   0.0000   0.0000   0.0000   0.0000   0.0000   0.0000   0.0000
     0.0000   0.0000   0.0000   0.0000   0.0000   0.0000   0.0000   0.0000

          k = 0.0000 0.1925 0.3032 (  6320 PWs)   bands (ev):

   -88.7231 -88.7181 -88.7180 -52.0526 -52.0497 -52.0334 -52.0315 -52.0083
   -52.0045 -51.8521 -51.8437 -51.8436 -43.3589 -15.6363 -15.2862 -15.2858
   -12.6753 -11.3020 -11.2159 -11.1515 -11.0490 -10.9183   0.6320   0.8862
     1.0599   1.2041   1.2860   1.3775   1.5210   1.8481   2.0384   2.8057
     2.8826   3.1287   3.2483   3.8015   3.9132   4.2912   4.4292   4.6948
     5.6436   5.7415   5.7963   5.8509   6.1761   6.2014   6.4583   6.5221
     6.9290   8.2274   8.2844   8.2970   8.3587   8.6801   8.8855  12.7991
    15.2816  16.5627  16.9369  17.8644  18.2094  19.0305  19.7585  19.9610

     occupation numbers 
     1.0000   1.0000   1.0000   1.0000   1.0000   1.0000   1.0000   1.0000
     1.0000   1.0000   1.0000   1.0000   1.0000   1.0000   1.0000   1.0000
     1.0000   1.0000   1.0000   1.0000   1.0000   1.0000   1.0000   1.0000
     1.0000   1.0000   1.0000   1.0000   1.0000   1.0000   1.0000   1.0000
     1.0000   1.0000   1.0000   1.0000   1.0000   1.0000   1.0000   1.0000
     1.0021   1.0083   1.0161   1.0282   1.0166   0.9816   0.3545   0.2200
     0.0009   0.0000   0.0000   0.0000   0.0000   0.0000   0.0000   0.0000
     0.0000   0.0000   0.0000   0.0000   0.0000   0.0000   0.0000   0.0000

          k = 0.0000 0.3849 0.0000 (  6318 PWs)   bands (ev):

   -88.7219 -88.7189 -88.7183 -52.0587 -52.0472 -52.0237 -52.0214 -52.0206
   -52.0083 -51.8502 -51.8451 -51.8441 -43.3588 -15.6174 -15.2876 -15.2864
   -12.4715 -11.6339 -11.2707 -11.1546 -10.9782 -10.8781   0.2585   1.0500
     1.1319   1.2202   1.4150   1.4706   1.6720   2.0892   2.3796   2.6982
     2.8283   2.8409   3.2067   3.2684   3.8006   4.0425   4.4964   5.2250
     5.8089   5.8227   5.9610   5.9757   6.1742   6.1892   6.3447   6.5752
     6.8025   8.1938   8.2563   8.2822   8.3388   8.6016   8.6594  12.9149
    15.3962  16.9081  17.2214  17.4337  18.1946  19.1033  19.2709  19.5995

     occupation numbers 
     1.0000   1.0000   1.0000   1.0000   1.0000   1.0000   1.0000   1.0000
     1.0000   1.0000   1.0000   1.0000   1.0000   1.0000   1.0000   1.0000
     1.0000   1.0000   1.0000   1.0000   1.0000   1.0000   1.0000   1.0000
     1.0000   1.0000   1.0000   1.0000   1.0000   1.0000   1.0000   1.0000
     1.0000   1.0000   1.0000   1.0000   1.0000   1.0000   1.0000   1.0000
     1.0185   1.0214   1.0636   1.0684   1.0189   0.9994   0.6566   0.1372
     0.0081   0.0000   0.0000   0.0000   0.0000   0.0000   0.0000   0.0000
     0.0000   0.0000   0.0000   0.0000   0.0000   0.0000   0.0000   0.0000

          k = 0.0000 0.3849 0.3032 (  6304 PWs)   bands (ev):

   -88.7219 -88.7190 -88.7183 -52.0585 -52.0474 -52.0237 -52.0214 -52.0205
   -52.0083 -51.8501 -51.8452 -51.8441 -43.3588 -15.6328 -15.2870 -15.2860
   -12.3981 -11.6015 -11.2607 -11.1846 -11.0122 -10.9234   0.2255   1.0087
     1.0467   1.1690   1.4367   1.5994   1.6747   2.0984   2.3616   2.7536
     2.8274   2.9131   3.2263   3.3016   3.7979   4.1530   4.4990   5.0129
     5.8085   5.8151   5.9672   5.9810   6.1394   6.1905   6.3284   6.5303
     6.8773   8.1597   8.2046   8.3026   8.3493   8.6146   8.6839  13.4559
    15.3236  16.1809  16.3633  17.5716  18.5943  18.8821  19.3176  19.9071

     occupation numbers 
     1.0000   1.0000   1.0000   1.0000   1.0000   1.0000   1.0000   1.0000
     1.0000   1.0000   1.0000   1.0000   1.0000   1.0000   1.0000   1.0000
     1.0000   1.0000   1.0000   1.0000   1.0000   1.0000   1.0000   1.0000
     1.0000   1.0000   1.0000   1.0000   1.0000   1.0000   1.0000   1.0000
     1.0000   1.0000   1.0000   1.0000   1.0000   1.0000   1.0000   1.0000
     1.0184   1.0197   1.0656   1.0700   1.0532   0.9976   0.7012   0.2055
     0.0024   0.0000   0.0000   0.0000   0.0000   0.0000   0.0000   0.0000
     0.0000   0.0000   0.0000   0.0000   0.0000   0.0000   0.0000   0.0000

          k = 0.0000-0.5774 0.0000 (  6336 PWs)   bands (ev):

   -88.7204 -88.7204 -88.7184 -52.0608 -52.0373 -52.0358 -52.0173 -52.0155
   -52.0136 -51.8476 -51.8476 -51.8442 -43.3589 -15.6173 -15.2883 -15.2866
   -12.1115 -12.0073 -11.2892 -11.1767 -10.9197 -10.9175   0.1110   1.0900
     1.1048   1.5328   1.5425   1.7039   1.8468   2.0013   2.0823   2.5491
     2.5979   2.9323   3.1621   3.2374   3.5085   4.1137   5.0196   5.0461
     5.7519   5.8677   5.8817   5.8835   6.2555   6.4197   6.4865   6.5671
     6.5937   8.1334   8.1597   8.3292   8.3832   8.4009   8.8094  14.0608
    14.1012  16.7524  17.1178  18.1064  18.3917  18.9038  18.9300  18.9465

     occupation numbers 
     1.0000   1.0000   1.0000   1.0000   1.0000   1.0000   1.0000   1.0000
     1.0000   1.0000   1.0000   1.0000   1.0000   1.0000   1.0000   1.0000
     1.0000   1.0000   1.0000   1.0000   1.0000   1.0000   1.0000   1.0000
     1.0000   1.0000   1.0000   1.0000   1.0000   1.0000   1.0000   1.0000
     1.0000   1.0000   1.0000   1.0000   1.0000   1.0000   1.0000   1.0000
     1.0095   1.0328   1.0370   1.0375   0.8811   0.4516   0.2905   0.1482
     0.1145   0.0000   0.0000   0.0000   0.0000   0.0000   0.0000   0.0000
     0.0000   0.0000   0.0000   0.0000   0.0000   0.0000   0.0000   0.0000

          k = 0.0000-0.5774 0.3032 (  6310 PWs)   bands (ev):

   -88.7204 -88.7203 -88.7185 -52.0608 -52.0372 -52.0357 -52.0175 -52.0154
   -52.0135 -51.8475 -51.8475 -51.8444 -43.3588 -15.6310 -15.2875 -15.2862
   -12.0109 -12.0009 -11.2782 -11.2054 -10.9918 -10.9278   0.0764   0.9847
     1.0284   1.5322   1.5434   1.6500   1.9114   2.0448   2.0860   2.6860
     2.7029   2.9484   3.1644   3.2335   3.5125   4.2594   4.9723   4.9828
     5.7402   5.8676   5.8824   5.8864   6.2476   6.3689   6.4284   6.5997
     6.6300   8.0212   8.0559   8.3407   8.4233   8.4606   8.8040  14.2635
    14.3293  16.1055  17.2825  17.3424  17.4490  18.9336  19.8573  20.0165

     occupation numbers 
     1.0000   1.0000   1.0000   1.0000   1.0000   1.0000   1.0000   1.0000
     1.0000   1.0000   1.0000   1.0000   1.0000   1.0000   1.0000   1.0000
     1.0000   1.0000   1.0000   1.0000   1.0000   1.0000   1.0000   1.0000
     1.0000   1.0000   1.0000   1.0000   1.0000   1.0000   1.0000   1.0000
     1.0000   1.0000   1.0000   1.0000   1.0000   1.0000   1.0000   1.0000
     1.0082   1.0328   1.0372   1.0384   0.8978   0.5898   0.4288   0.1078
     0.0783   0.0000   0.0000   0.0000   0.0000   0.0000   0.0000   0.0000
     0.0000   0.0000   0.0000   0.0000   0.0000   0.0000   0.0000   0.0000

          k = 0.1667 0.2887 0.0000 (  6317 PWs)   bands (ev):

   -88.7223 -88.7184 -88.7184 -52.0542 -52.0525 -52.0253 -52.0237 -52.0175
   -52.0068 -51.8508 -51.8442 -51.8442 -43.3588 -15.6174 -15.2873 -15.2864
   -12.5639 -11.4571 -11.3916 -11.0619 -11.0247 -10.8709   0.5789   0.6216
     1.1844   1.3080   1.3305   1.3306   1.6455   2.2180   2.2627   2.7565
     2.7982   2.9518   3.0741   3.4144   4.0994   4.1225   4.2339   5.1399
     5.8150   5.9513   5.9632   6.0112   6.0182   6.0321   6.4845   6.4887
     6.8300   8.2134   8.2561   8.2952   8.4151   8.4489   8.7967  12.6327
    16.1490  16.1912  16.9420  17.9990  18.5920  18.8841  19.3046  19.4330

     occupation numbers 
     1.0000   1.0000   1.0000   1.0000   1.0000   1.0000   1.0000   1.0000
     1.0000   1.0000   1.0000   1.0000   1.0000   1.0000   1.0000   1.0000
     1.0000   1.0000   1.0000   1.0000   1.0000   1.0000   1.0000   1.0000
     1.0000   1.0000   1.0000   1.0000   1.0000   1.0000   1.0000   1.0000
     1.0000   1.0000   1.0000   1.0000   1.0000   1.0000   1.0000   1.0000
     1.0197   1.0603   1.0643   1.0781   1.0795   1.0818   0.2948   0.2860
     0.0053   0.0000   0.0000   0.0000   0.0000   0.0000   0.0000   0.0000
     0.0000   0.0000   0.0000   0.0000   0.0000   0.0000   0.0000   0.0000

          k = 0.1667 0.2887 0.3032 (  6308 PWs)   bands (ev):

   -88.7223 -88.7184 -88.7184 -52.0541 -52.0525 -52.0253 -52.0237 -52.0175
   -52.0067 -51.8507 -51.8444 -51.8443 -43.3588 -15.6333 -15.2867 -15.2860
   -12.4882 -11.4335 -11.3890 -11.1017 -11.0276 -10.9231   0.5267   0.6052
     1.1067   1.2631   1.2996   1.5311   1.6429   2.2111   2.2464   2.7737
     2.8194   3.0022   3.1071   3.4459   4.1306   4.1750   4.2826   4.8900
     5.7771   5.9419   5.9582   6.0146   6.0228   6.0324   6.4658   6.4710
     6.9212   8.1837   8.2369   8.2380   8.4386   8.4776   8.7950  13.3218
    15.8388  16.0674  16.1040  18.2008  18.3822  18.5946  19.4939  19.4996

     occupation numbers 
     1.0000   1.0000   1.0000   1.0000   1.0000   1.0000   1.0000   1.0000
     1.0000   1.0000   1.0000   1.0000   1.0000   1.0000   1.0000   1.0000
     1.0000   1.0000   1.0000   1.0000   1.0000   1.0000   1.0000   1.0000
     1.0000   1.0000   1.0000   1.0000   1.0000   1.0000   1.0000   1.0000
     1.0000   1.0000   1.0000   1.0000   1.0000   1.0000   1.0000   1.0000
     1.0129   1.0571   1.0626   1.0788   1.0804   1.0818   0.3367   0.3249
     0.0011   0.0000   0.0000   0.0000   0.0000   0.0000   0.0000   0.0000
     0.0000   0.0000   0.0000   0.0000   0.0000   0.0000   0.0000   0.0000

          k = 0.1667 0.4811 0.0000 (  6294 PWs)   bands (ev):

   -88.7209 -88.7195 -88.7187 -52.0564 -52.0461 -52.0324 -52.0178 -52.0165
   -52.0106 -51.8485 -51.8460 -51.8446 -43.3588 -15.6171 -15.2879 -15.2866
   -12.2190 -11.7933 -11.4921 -11.0548 -10.9601 -10.9037   0.3408   0.8653
     1.0589   1.4238   1.5522   1.6207   1.8174   2.0773   2.1271   2.5275
     2.6164   2.8613   3.1891   3.3843   3.6606   4.2519   4.6868   5.0980
     5.8457   5.8932   5.9125   5.9641   6.2214   6.2625   6.3450   6.5042
     6.7026   8.0358   8.1280   8.2706   8.5168   8.6482   8.7386  13.6242
    14.8263  15.7739  17.8040  18.2361  18.5602  18.7006  18.8979  19.1501

     occupation numbers 
     1.0000   1.0000   1.0000   1.0000   1.0000   1.0000   1.0000   1.0000
     1.0000   1.0000   1.0000   1.0000   1.0000   1.0000   1.0000   1.0000
     1.0000   1.0000   1.0000   1.0000   1.0000   1.0000   1.0000   1.0000
     1.0000   1.0000   1.0000   1.0000   1.0000   1.0000   1.0000   1.0000
     1.0000   1.0000   1.0000   1.0000   1.0000   1.0000   1.0000   1.0000
     1.0268   1.0406   1.0469   1.0646   0.9483   0.8656   0.6559   0.2541
     0.0331   0.0000   0.0000   0.0000   0.0000   0.0000   0.0000   0.0000
     0.0000   0.0000   0.0000   0.0000   0.0000   0.0000   0.0000   0.0000

          k = 0.1667 0.4811 0.3032 (  6307 PWs)   bands (ev):

   -88.7209 -88.7195 -88.7187 -52.0565 -52.0461 -52.0323 -52.0178 -52.0165
   -52.0106 -51.8485 -51.8461 -51.8449 -43.3588 -15.6305 -15.2872 -15.2863
   -12.1557 -11.7609 -11.4844 -11.0899 -10.9917 -10.9327   0.2973   0.7940
     0.9691   1.3870   1.5035   1.6880   1.8463   2.0813   2.1204   2.6504
     2.7176   2.9067   3.1954   3.3907   3.6641   4.3801   4.7219   5.0284
     5.8301   5.8709   5.9070   5.9628   6.2054   6.2446   6.3476   6.5147
     6.7667   7.8921   8.0235   8.2100   8.5389   8.6563   8.7377  14.0847
    14.9941  15.8014  16.7707  17.6042  17.8048  19.0541  19.5463  19.8608

     occupation numbers 
     1.0000   1.0000   1.0000   1.0000   1.0000   1.0000   1.0000   1.0000
     1.0000   1.0000   1.0000   1.0000   1.0000   1.0000   1.0000   1.0000
     1.0000   1.0000   1.0000   1.0000   1.0000   1.0000   1.0000   1.0000
     1.0000   1.0000   1.0000   1.0000   1.0000   1.0000   1.0000   1.0000
     1.0000   1.0000   1.0000   1.0000   1.0000   1.0000   1.0000   1.0000
     1.0230   1.0337   1.0451   1.0642   0.9754   0.9040   0.6486   0.2337
     0.0139   0.0000   0.0000   0.0000   0.0000   0.0000   0.0000   0.0000
     0.0000   0.0000   0.0000   0.0000   0.0000   0.0000   0.0000   0.0000

          k = 0.3333 0.5774 0.0000 (  6294 PWs)   bands (ev):

   -88.7197 -88.7197 -88.7197 -52.0478 -52.0455 -52.0455 -52.0144 -52.0144
   -52.0121 -51.8465 -51.8464 -51.8464 -43.3588 -15.6172 -15.2874 -15.2874
   -11.9463 -11.8098 -11.8098 -10.9719 -10.9520 -10.9520   0.7208   0.7769
     0.7769   1.5506   1.5506   1.5929   1.9646   1.9646   2.0245   2.3700
     2.5938   2.5938   3.5168   3.5168   3.6217   4.6331   4.7303   4.7303
     5.8663   5.9160   5.9160   6.0986   6.0986   6.1144   6.4988   6.5217
     6.5217   8.0583   8.1010   8.1010   8.7006   8.7006   8.7815  14.5938
    14.5990  14.5990  18.1596  18.4947  18.4947  18.8657  18.8657  18.9234

     occupation numbers 
     1.0000   1.0000   1.0000   1.0000   1.0000   1.0000   1.0000   1.0000
     1.0000   1.0000   1.0000   1.0000   1.0000   1.0000   1.0000   1.0000
     1.0000   1.0000   1.0000   1.0000   1.0000   1.0000   1.0000   1.0000
     1.0000   1.0000   1.0000   1.0000   1.0000   1.0000   1.0000   1.0000
     1.0000   1.0000   1.0000   1.0000   1.0000   1.0000   1.0000   1.0000
     1.0324   1.0481   1.0481   1.0760   1.0760   1.0693   0.2648   0.2208
     0.2208   0.0000   0.0000   0.0000   0.0000   0.0000   0.0000   0.0000
     0.0000   0.0000   0.0000   0.0000   0.0000   0.0000   0.0000   0.0000

          k = 0.3333 0.5774 0.3032 (  6312 PWs)   bands (ev):

   -88.7197 -88.7197 -88.7197 -52.0480 -52.0456 -52.0456 -52.0144 -52.0144
   -52.0121 -51.8465 -51.8465 -51.8465 -43.3588 -15.6293 -15.2869 -15.2869
   -11.8497 -11.8053 -11.8053 -11.0555 -10.9588 -10.9588   0.6005   0.7319
     0.7319   1.5268   1.5268   1.5378   1.9616   1.9616   2.0202   2.5627
     2.7055   2.7055   3.5170   3.5170   3.6296   4.7086   4.7693   4.7693
     5.8455   5.8929   5.8929   6.0987   6.0987   6.1166   6.5263   6.5527
     6.5527   7.9201   7.9683   7.9683   8.6985   8.6985   8.7706  14.8506
    14.8908  14.8908  17.3347  17.4744  17.4744  19.6231  19.6232  19.6242

     occupation numbers 
     1.0000   1.0000   1.0000   1.0000   1.0000   1.0000   1.0000   1.0000
     1.0000   1.0000   1.0000   1.0000   1.0000   1.0000   1.0000   1.0000
     1.0000   1.0000   1.0000   1.0000   1.0000   1.0000   1.0000   1.0000
     1.0000   1.0000   1.0000   1.0000   1.0000   1.0000   1.0000   1.0000
     1.0000   1.0000   1.0000   1.0000   1.0000   1.0000   1.0000   1.0000
     1.0268   1.0405   1.0405   1.0760   1.0760   1.0681   0.2124   0.1690
     0.1690   0.0000   0.0000   0.0000   0.0000   0.0000   0.0000   0.0000
     0.0000   0.0000   0.0000   0.0000   0.0000   0.0000   0.0000   0.0000

          k =-0.1667-0.2887 0.3032 (  6308 PWs)   bands (ev):

   -88.7223 -88.7184 -88.7184 -52.0541 -52.0525 -52.0253 -52.0237 -52.0175
   -52.0067 -51.8507 -51.8444 -51.8443 -43.3588 -15.6340 -15.2867 -15.2861
   -12.4859 -11.4123 -11.3865 -11.1264 -11.0301 -10.9229   0.5322   0.5979
     1.1282   1.2710   1.3056   1.5166   1.6428   2.2136   2.2524   2.7627
     2.8048   3.0403   3.1414   3.4298   4.1132   4.1293   4.2471   4.8989
     5.7636   5.9490   5.9642   6.0184   6.0252   6.0341   6.4456   6.4537
     6.8989   8.2554   8.2977   8.2991   8.4198   8.4522   8.7991  13.1844
    15.8126  15.8632  15.9507  18.5261  18.6338  18.9459  19.3193  19.3574

     occupation numbers 
     1.0000   1.0000   1.0000   1.0000   1.0000   1.0000   1.0000   1.0000
     1.0000   1.0000   1.0000   1.0000   1.0000   1.0000   1.0000   1.0000
     1.0000   1.0000   1.0000   1.0000   1.0000   1.0000   1.0000   1.0000
     1.0000   1.0000   1.0000   1.0000   1.0000   1.0000   1.0000   1.0000
     1.0000   1.0000   1.0000   1.0000   1.0000   1.0000   1.0000   1.0000
     1.0110   1.0595   1.0646   1.0796   1.0808   1.0820   0.3853   0.3654
     0.0016   0.0000   0.0000   0.0000   0.0000   0.0000   0.0000   0.0000
     0.0000   0.0000   0.0000   0.0000   0.0000   0.0000   0.0000   0.0000

          k =-0.1667-0.4811 0.3032 (  6307 PWs)   bands (ev):

   -88.7209 -88.7195 -88.7188 -52.0565 -52.0461 -52.0323 -52.0178 -52.0165
   -52.0106 -51.8485 -51.8461 -51.8449 -43.3588 -15.6318 -15.2872 -15.2864
   -12.1496 -11.7504 -11.4658 -11.1226 -10.9950 -10.9340   0.3011   0.8061
     0.9906   1.3868   1.5100   1.6736   1.8365   2.0788   2.1192   2.6699
     2.7489   2.9514   3.1900   3.3897   3.6606   4.2908   4.6566   4.9852
     5.8385   5.8705   5.9134   5.9614   6.2081   6.2533   6.3275   6.4700
     6.7207   8.0256   8.1421   8.2922   8.5215   8.6540   8.7365  13.8363
    14.7120  15.3495  16.9826  18.1140  18.2941  18.9417  19.6168  19.9488

     occupation numbers 
     1.0000   1.0000   1.0000   1.0000   1.0000   1.0000   1.0000   1.0000
     1.0000   1.0000   1.0000   1.0000   1.0000   1.0000   1.0000   1.0000
     1.0000   1.0000   1.0000   1.0000   1.0000   1.0000   1.0000   1.0000
     1.0000   1.0000   1.0000   1.0000   1.0000   1.0000   1.0000   1.0000
     1.0000   1.0000   1.0000   1.0000   1.0000   1.0000   1.0000   1.0000
     1.0250   1.0336   1.0473   1.0637   0.9711   0.8858   0.7035   0.3272
     0.0262   0.0000   0.0000   0.0000   0.0000   0.0000   0.0000   0.0000
     0.0000   0.0000   0.0000   0.0000   0.0000   0.0000   0.0000   0.0000

          k =-0.3333-0.5774 0.3032 (  6312 PWs)   bands (ev):

   -88.7197 -88.7197 -88.7197 -52.0480 -52.0456 -52.0456 -52.0144 -52.0144
   -52.0121 -51.8465 -51.8465 -51.8465 -43.3588 -15.6312 -15.2870 -15.2870
   -11.8151 -11.8026 -11.8026 -11.0924 -10.9620 -10.9620   0.6341   0.7387
     0.7387   1.5208   1.5208   1.5257   1.9606   1.9606   2.0245   2.6017
     2.7449   2.7449   3.5182   3.5182   3.6216   4.5981   4.6849   4.6849
     5.8408   5.8944   5.8944   6.0987   6.0987   6.1162   6.4849   6.5107
     6.5107   8.0792   8.1166   8.1166   8.6999   8.6999   8.7773  14.4365
    14.4663  14.4663  17.7289  17.9482  17.9482  19.6711  19.6713  20.0853

     occupation numbers 
     1.0000   1.0000   1.0000   1.0000   1.0000   1.0000   1.0000   1.0000
     1.0000   1.0000   1.0000   1.0000   1.0000   1.0000   1.0000   1.0000
     1.0000   1.0000   1.0000   1.0000   1.0000   1.0000   1.0000   1.0000
     1.0000   1.0000   1.0000   1.0000   1.0000   1.0000   1.0000   1.0000
     1.0000   1.0000   1.0000   1.0000   1.0000   1.0000   1.0000   1.0000
     1.0256   1.0410   1.0410   1.0760   1.0760   1.0684   0.2941   0.2413
     0.2413   0.0000   0.0000   0.0000   0.0000   0.0000   0.0000   0.0000
     0.0000   0.0000   0.0000   0.0000   0.0000   0.0000   0.0000   0.0000

     the Fermi energy is     6.4395 ev

!    total energy              =   -1489.29550995 Ry
     total all-electron energy =     -9588.530317 Ry
     estimated scf accuracy    <          6.2E-09 Ry
     smearing contrib. (-TS)   =       0.00987170 Ry
     internal energy E=F+TS    =   -1489.30538165 Ry

     The total energy is F=E-TS. E is the sum of the following terms:
     one-electron contribution =   -1065.38038718 Ry
     hartree contribution      =     574.97550855 Ry
     xc contribution           =    -150.78276578 Ry
     ewald contribution        =    -512.59391049 Ry
     one-center paw contrib.   =    -335.52382674 Ry
      -> PAW hartree energy AE =     886.21239381 Ry
      -> PAW hartree energy PS =    -883.93870503 Ry
      -> PAW xc energy AE      =    -480.56345261 Ry
      -> PAW xc energy PS      =     142.76593708 Ry
      -> total E_H with PAW    =     577.24919733 Ry
      -> total E_XC with PAW   =    -488.58028131 Ry

     total magnetization       =     2.30 Bohr mag/cell
     absolute magnetization    =     2.34 Bohr mag/cell

     convergence has been achieved in  22 iterations

     Forces acting on atoms (cartesian axes, Ry/au):

     atom    1 type  1   force =    -0.00846865   -0.01466813    0.00045283
     atom    2 type  1   force =    -0.00846865    0.01466813    0.00045283
     atom    3 type  1   force =     0.01693730   -0.00000000    0.00045283
     atom    4 type  2   force =     0.00000000    0.00000000   -0.20006868
     atom    5 type  2   force =     0.00000000    0.00000000   -0.02708369
     atom    6 type  2   force =     0.00000000    0.00000000   -0.02708369
     atom    7 type  2   force =    -0.00168327    0.00291551    0.02185298
     atom    8 type  2   force =    -0.00168327   -0.00291551    0.02185298
     atom    9 type  2   force =     0.00336654   -0.00000000    0.02185298
     atom   10 type  3   force =     0.00000000    0.00000000    0.18731865
     The non-local contrib.  to forces
     atom    1 type  1   force =     0.00560325    0.00970511   -0.00344462
     atom    2 type  1   force =     0.00560325   -0.00970511   -0.00344462
     atom    3 type  1   force =    -0.01120650   -0.00000000   -0.00344462
     atom    4 type  2   force =     0.00000000    0.00000000   -1.10906917
     atom    5 type  2   force =     0.00000000    0.00000000   -1.19376408
     atom    6 type  2   force =     0.00000000    0.00000000   -1.19376408
     atom    7 type  2   force =    -0.04243842    0.07350550    1.10882103
     atom    8 type  2   force =    -0.04243842   -0.07350550    1.10882103
     atom    9 type  2   force =     0.08487684    0.00000000    1.10882103
     atom   10 type  3   force =     0.00000000    0.00000000    0.46046892
     The ionic contribution  to forces
     atom    1 type  1   force =    -1.35504263   -2.34700269    0.00000000
     atom    2 type  1   force =    -1.35504262    2.34700268   -0.00000000
     atom    3 type  1   force =     2.71008525    0.00000001   -0.00000000
     atom    4 type  2   force =     0.00000000    0.00000001   19.20807928
     atom    5 type  2   force =    -0.00000000   -0.00000000   25.35003989
     atom    6 type  2   force =    -0.00000000   -0.00000000   25.35003989
     atom    7 type  2   force =     0.96469751   -1.67090510  -24.18609038
     atom    8 type  2   force =     0.96469751    1.67090509  -24.18609038
     atom    9 type  2   force =    -1.92939502    0.00000000  -24.18609038
     atom   10 type  3   force =     0.00000000    0.00000000    2.65011209
     The local contribution  to forces
     atom    1 type  1   force =     1.34096095    2.32261243    0.00386362
     atom    2 type  1   force =     1.34096116   -2.32261243    0.00386362
     atom    3 type  1   force =    -2.68192189    0.00000018    0.00386362
     atom    4 type  2   force =     0.00000001    0.00000001  -18.31035583
     atom    5 type  2   force =    -0.00000000    0.00000000  -24.19392662
     atom    6 type  2   force =     0.00000001   -0.00000000  -24.19392662
     atom    7 type  2   force =    -0.92425866    1.60086299   23.10898032
     atom    8 type  2   force =    -0.92425867   -1.60086299   23.10898032
     atom    9 type  2   force =     1.84851735    0.00000001   23.10898032
     atom   10 type  3   force =     0.00000006    0.00000010   -2.92293832
     The core correction contribution to forces
     atom    1 type  1   force =     0.00000280    0.00000485    0.00003131
     atom    2 type  1   force =     0.00000280   -0.00000485    0.00003131
     atom    3 type  1   force =    -0.00000560    0.00000000    0.00003131
     atom    4 type  2   force =     0.00000000   -0.00000000    0.01130149
     atom    5 type  2   force =     0.00000000   -0.00000000    0.01056115
     atom    6 type  2   force =     0.00000000    0.00000000    0.01056115
     atom    7 type  2   force =     0.00031345   -0.00054290   -0.00985511
     atom    8 type  2   force =     0.00031345    0.00054290   -0.00985511
     atom    9 type  2   force =    -0.00062689   -0.00000000   -0.00985511
     atom   10 type  3   force =     0.00000000    0.00000000   -0.00034499
     The Hubbard contrib.    to forces
     atom    1 type  1   force =     0.00000000    0.00000000    0.00000000
     atom    2 type  1   force =     0.00000000    0.00000000    0.00000000
     atom    3 type  1   force =     0.00000000    0.00000000    0.00000000
     atom    4 type  2   force =     0.00000000    0.00000000    0.00000000
     atom    5 type  2   force =     0.00000000    0.00000000    0.00000000
     atom    6 type  2   force =     0.00000000    0.00000000    0.00000000
     atom    7 type  2   force =     0.00000000    0.00000000    0.00000000
     atom    8 type  2   force =     0.00000000    0.00000000    0.00000000
     atom    9 type  2   force =     0.00000000    0.00000000    0.00000000
     atom   10 type  3   force =     0.00000000    0.00000000    0.00000000
     The SCF correction term to forces
     atom    1 type  1   force =     0.00000698    0.00001209    0.00000272
     atom    2 type  1   force =     0.00000698   -0.00001209    0.00000272
     atom    3 type  1   force =    -0.00001396    0.00000000    0.00000272
     atom    4 type  2   force =     0.00000000    0.00000000   -0.00002425
     atom    5 type  2   force =    -0.00000000   -0.00000000    0.00000617
     atom    6 type  2   force =    -0.00000000   -0.00000000    0.00000617
     atom    7 type  2   force =     0.00000287   -0.00000498   -0.00000268
     atom    8 type  2   force =     0.00000287    0.00000498   -0.00000268
     atom    9 type  2   force =    -0.00000575    0.00000000   -0.00000268
     atom   10 type  3   force =     0.00000000    0.00000000    0.00002114

     Total force =     0.280910     Total SCF correction =     0.000043

     Writing all to output data dir ./out/pw.save/ :
     XML data file, charge density, pseudopotentials, collected wavefunctions
 
     init_run     :     22.29s CPU      4.63s WALL (       1 calls)
     electrons    :    279.75s CPU     64.54s WALL (       1 calls)
     forces       :      0.96s CPU      0.91s WALL (       1 calls)

     Called by init_run:
     wfcinit      :      0.51s CPU      0.62s WALL (       1 calls)
     wfcinit:atom :      0.06s CPU      0.06s WALL (      34 calls)
     wfcinit:wfcr :      0.34s CPU      0.37s WALL (      34 calls)
     potinit      :     21.13s CPU      3.29s WALL (       1 calls)
     hinit0       :      0.54s CPU      0.53s WALL (       1 calls)

     Called by electrons:
     c_bands      :     27.44s CPU     27.52s WALL (      22 calls)
     sum_band     :      3.80s CPU      3.77s WALL (      22 calls)
     v_of_rho     :      0.47s CPU      0.29s WALL (      23 calls)
     v_h          :      0.30s CPU      0.06s WALL (      23 calls)
     v_xc         :      0.18s CPU      0.24s WALL (      24 calls)
     newd         :      0.54s CPU      0.47s WALL (      23 calls)
                                        0.47s GPU  (      23 calls)
     PAW_pot      :    257.55s CPU     33.26s WALL (      23 calls)
     mix_rho      :      0.53s CPU      0.53s WALL (      22 calls)

     Called by c_bands:
     init_us_2    :      0.92s CPU      0.89s WALL (    1564 calls)
     cegterg      :     23.53s CPU     23.67s WALL (     748 calls)

     Called by sum_band:
     sum_band:wei :      0.04s CPU      0.04s WALL (      22 calls)
                                        0.04s GPU  (      22 calls)
     sum_band:loo :      2.55s CPU      2.50s WALL (      22 calls)
                                        2.50s GPU  (      22 calls)
     sum_band:buf :      0.58s CPU      0.60s WALL (     748 calls)
                                        0.59s GPU  (     748 calls)
     sum_band:ini :      0.43s CPU      0.43s WALL (     748 calls)
                                        0.42s GPU  (     748 calls)
     sum_band:cal :      0.06s CPU      0.08s WALL (     748 calls)
                                        0.06s GPU  (     748 calls)
     sum_band:bec :      0.35s CPU      0.37s WALL (     748 calls)
                                        0.36s GPU  (     748 calls)
     addusdens    :      0.82s CPU      0.83s WALL (      22 calls)
                                        0.83s GPU  (      22 calls)
     addusd:skk   :      0.01s CPU      0.01s WALL (      66 calls)
                                        0.01s GPU  (      66 calls)

     Called by *egterg:
     cdiaghg      :     10.59s CPU     10.72s WALL (    4538 calls)
                                       10.66s GPU  (    4538 calls)
     cegterg:over :      1.25s CPU      1.27s WALL (    3790 calls)
     cegterg:upda :      1.32s CPU      1.33s WALL (    3790 calls)
     cegterg:last :      0.18s CPU      0.18s WALL (    1555 calls)
     h_psi        :      7.85s CPU      7.98s WALL (    4572 calls)
                                        7.93s GPU  (    4572 calls)
     s_psi        :      1.44s CPU      1.49s WALL (    4572 calls)
     g_psi        :      0.02s CPU      0.13s WALL (    3790 calls)
                                        0.08s GPU  (    3790 calls)

     Called by h_psi:
     h_psi:calbec :      0.19s CPU      0.40s WALL (    4572 calls)
                                        0.35s GPU  (    4572 calls)
     vloc_psi     :      5.64s CPU      5.65s WALL (    4572 calls)
                                        5.60s GPU  (    4572 calls)
     add_vuspsi   :      1.37s CPU      1.58s WALL (    4572 calls)
                                        1.53s GPU  (    4572 calls)

     General routines
     calbec       :      0.21s CPU      0.23s WALL (    5456 calls)
     fft          :      7.26s CPU      1.20s WALL (     588 calls)
                                        0.07s GPU  (     542 calls)
     ffts         :      2.86s CPU      0.62s WALL (      90 calls)
                                        0.00s GPU  (      44 calls)
     fftw         :      0.48s CPU      2.92s WALL (   22726 calls)
                                        2.66s GPU  (   22726 calls)
     interpolate  :     10.30s CPU      1.78s WALL (      46 calls)
 
     Parallel routines

     PAW routines
     PAW_pot      :    257.55s CPU     33.26s WALL (      23 calls)
     PAW_symme    :      0.03s CPU      0.01s WALL (      45 calls)
 
     PWSCF        :   5m 3.79s CPU   1m10.68s WALL

 
   This run was terminated on:   2:22:24  12Jul2026            

=------------------------------------------------------------------------------=
   JOB DONE.
=------------------------------------------------------------------------------=
Warning: ieee_invalid is signaling
Warning: ieee_divide_by_zero is signaling
Warning: ieee_inexact is signaling
FORTRAN STOP
