
     Program PWSCF v.7.3.1 starts on 12Jul2026 at  3:21:19 

     This program is part of the open-source Quantum ESPRESSO suite
     for quantum simulation of materials; please cite
         "P. Giannozzi et al., J. Phys.:Condens. Matter 21 395502 (2009);
         "P. Giannozzi et al., J. Phys.:Condens. Matter 29 465901 (2017);
         "P. Giannozzi et al., J. Chem. Phys. 152 154105 (2020);
          URL http://www.quantum-espresso.org", 
     in publications or presentations arising from this work. More details at
     http://www.quantum-espresso.org/quote

     Parallel version (MPI & OpenMP), running on      14 processor cores
     Number of MPI processes:                 1
     Threads/MPI process:                    14

     MPI processes distributed on     1 nodes
     846785 MiB available memory on the printing compute node when the environment starts
 
     Reading input from pw.in

     Current dimensions of program PWSCF are:
     Max number of different atomic species (ntypx) = 10
     Max number of k-points (npk) =  40000
     Max angular momentum in pseudopotentials (lmaxx) =  4
     file Co.pbe-spn-kjpaw_psl.0.3.1.UPF: wavefunction(s)  3P 3D renormalized
     file O.pbe-n-kjpaw_psl.1.0.0.UPF: wavefunction(s)  2S 2P renormalized
 
     Subspace diagonalization in iterative solution of the eigenvalue problem:
     a serial algorithm will be used

 
     G-vector sticks info
     --------------------
     sticks:   dense  smooth     PW     G-vecs:    dense   smooth      PW
     Sum         931     475    139                81725    28863    4749
 
     Using Slab Decomposition
 


     bravais-lattice index     =            4
     lattice parameter (alat)  =       5.3290  a.u.
     unit-cell volume          =     460.1089 (a.u.)^3
     number of atoms/cell      =            4
     number of atomic types    =            3
     number of electrons       =        32.00
     number of Kohn-Sham states=           24
     kinetic-energy cutoff     =      60.0000  Ry
     charge density cutoff     =     480.0000  Ry
     scf convergence threshold =      1.0E-07
     mixing beta               =       0.3000
     number of iterations used =            8  local-TF  mixing
     Exchange-correlation= SLA  PW   PBX  PBC
                           (   1   4   3   4   0   0   0)

     GPU acceleration is ACTIVE.  1 visible GPUs per MPI rank
     GPU-aware MPI enabled


     GPU used by master process:

        Device Number: 0
        Device name: NVIDIA A100-SXM4-80GB
        Compute capability : 80
        Ratio of single to double precision performance  : 2
        Memory Clock Rate (KHz): 1593000
        Memory Bus Width (bits): 5120
        Peak Memory Bandwidth (GB/s): ******

     celldm(1)=   5.329028  celldm(2)=   0.000000  celldm(3)=   3.510638
     celldm(4)=   0.000000  celldm(5)=   0.000000  celldm(6)=   0.000000

     crystal axes: (cart. coord. in units of alat)
               a(1) = (   1.000000   0.000000   0.000000 )  
               a(2) = (  -0.500000   0.866025   0.000000 )  
               a(3) = (   0.000000   0.000000   3.510638 )  

     reciprocal axes: (cart. coord. in units 2 pi/alat)
               b(1) = (  1.000000  0.577350 -0.000000 )  
               b(2) = (  0.000000  1.154701  0.000000 )  
               b(3) = (  0.000000 -0.000000  0.284848 )  


     PseudoPot. # 1 for Co read from file:
     ../../pseudo/Co.pbe-spn-kjpaw_psl.0.3.1.UPF
     MD5 check sum: 3c0a43779828c046024e4f3be63f8e67
     Pseudo is Projector augmented-wave + core cor, Zval = 17.0
     Generated using &quot;atomic&quot; code by A. Dal Corso  v.6.2.2
     Shape of augmentation charge: PSQ
     Using radial grid of 1193 points,  6 beta functions with: 
                l(1) =   0
                l(2) =   0
                l(3) =   1
                l(4) =   1
                l(5) =   2
                l(6) =   2
     Q(r) pseudized with 0 coefficients 


     PseudoPot. # 2 for O  read from file:
     ../../pseudo/O.pbe-n-kjpaw_psl.1.0.0.UPF
     MD5 check sum: e99d9cef9b487d1ca56f5b95ecd0fd7a
     Pseudo is Projector augmented-wave + core cor, Zval =  6.0
     Generated using &quot;atomic&quot; code by A. Dal Corso  v.6.3
     Shape of augmentation charge: PSQ
     Using radial grid of 1095 points,  4 beta functions with: 
                l(1) =   0
                l(2) =   0
                l(3) =   1
                l(4) =   1
     Q(r) pseudized with 0 coefficients 


     PseudoPot. # 3 for Li read from file:
     ../../pseudo/Li.pbe-s-kjpaw_psl.1.0.0.UPF
     MD5 check sum: 3974953fb0fea6c4f83fb01d64ffc134
     Pseudo is Projector augmented-wave, Zval =  3.0
     Generated using &quot;atomic&quot; code by A. Dal Corso  v.6.3
     Shape of augmentation charge: PSQ
     Using radial grid of 1017 points,  4 beta functions with: 
                l(1) =   0
                l(2) =   0
                l(3) =   1
                l(4) =   1
     Q(r) pseudized with 0 coefficients 


     atomic species   valence    mass     pseudopotential
     Co               17.00    58.93300     Co( 1.00)
     O                 6.00    15.99900     O ( 1.00)
     Li                3.00     6.94100     Li( 1.00)

     Starting magnetic structure 
     atomic species   magnetization
     Co              0.300
     O               0.000
     Li              0.000

      6 Sym. Ops. (no inversion) found


                                    s                        frac. trans.

      isym =  1     identity                                     

 cryst.   s( 1) = (     1          0          0      )
                  (     0          1          0      )
                  (     0          0          1      )

 cart.    s( 1) = (  1.0000000  0.0000000  0.0000000 )
                  (  0.0000000  1.0000000  0.0000000 )
                  (  0.0000000  0.0000000  1.0000000 )


      isym =  2     120 deg rotation - cryst. axis [0,0,1]       

 cryst.   s( 2) = (     0          1          0      )
                  (    -1         -1          0      )
                  (     0          0          1      )

 cart.    s( 2) = ( -0.5000000 -0.8660254  0.0000000 )
                  (  0.8660254 -0.5000000  0.0000000 )
                  (  0.0000000  0.0000000  1.0000000 )


      isym =  3     120 deg rotation - cryst. axis [0,0,-1]      

 cryst.   s( 3) = (    -1         -1          0      )
                  (     1          0          0      )
                  (     0          0          1      )

 cart.    s( 3) = ( -0.5000000  0.8660254  0.0000000 )
                  ( -0.8660254 -0.5000000  0.0000000 )
                  (  0.0000000  0.0000000  1.0000000 )


      isym =  4     inv. 180 deg rotation - cart. axis [1,0,0]   

 cryst.   s( 4) = (    -1          0          0      )
                  (     1          1          0      )
                  (     0          0          1      )

 cart.    s( 4) = ( -1.0000000  0.0000000  0.0000000 )
                  (  0.0000000  1.0000000  0.0000000 )
                  (  0.0000000  0.0000000  1.0000000 )


      isym =  5     inv. 180 deg rotation - cryst. axis [0,1,0]  

 cryst.   s( 5) = (     1          1          0      )
                  (     0         -1          0      )
                  (     0          0          1      )

 cart.    s( 5) = (  0.5000000  0.8660254  0.0000000 )
                  (  0.8660254 -0.5000000  0.0000000 )
                  (  0.0000000  0.0000000  1.0000000 )


      isym =  6     inv. 180 deg rotation - cryst. axis [1,1,0]  

 cryst.   s( 6) = (     0         -1          0      )
                  (    -1          0          0      )
                  (     0          0          1      )

 cart.    s( 6) = (  0.5000000 -0.8660254  0.0000000 )
                  ( -0.8660254 -0.5000000  0.0000000 )
                  (  0.0000000  0.0000000  1.0000000 )


     point group C_3v (3m)  
     there are  3 classes
     the character table:

       E     2C3   3s_v 
A_1    1.00  1.00  1.00
A_2    1.00  1.00 -1.00
E      2.00 -1.00  0.00

     the symmetry operations in each class and the name of the first element:

     E        1
          identity                                               
     2C3      2    3
          120 deg rotation - cryst. axis [0,0,1]                 
     3s_v     4    5    6
          inv. 180 deg rotation - cart. axis [1,0,0]             

   Cartesian axes

     site n.     atom                  positions (alat units)
         1        Co     tau(   1) = (   0.0000000   0.0000000   0.0000000  )
         2        O      tau(   2) = (  -0.0000000   0.5773503   0.3404255  )
         3        O      tau(   3) = (   0.5000000   0.2886751   3.1702128  )
         4        Li     tau(   4) = (   0.0000000   0.0000000   1.8617021  )

   Crystallographic axes

     site n.     atom                  positions (cryst. coord.)
         1        Co     tau(   1) = (  0.0000000  0.0000000  0.0000000  )
         2        O      tau(   2) = (  0.3333333  0.6666667  0.0969697  )
         3        O      tau(   3) = (  0.6666667  0.3333333  0.9030303  )
         4        Li     tau(   4) = (  0.0000000  0.0000000  0.5303030  )

     number of k points=    25  Marzari-Vanderbilt smearing, width (Ry)=  0.0200
                       cart. coord. in units 2pi/alat
        k(    1) = (   0.0000000   0.0000000   0.0000000), wk =   0.0052083
        k(    2) = (   0.0000000   0.0000000   0.0949495), wk =   0.0104167
        k(    3) = (   0.0000000   0.1443376   0.0000000), wk =   0.0312500
        k(    4) = (   0.0000000   0.1443376   0.0949495), wk =   0.0312500
        k(    5) = (   0.0000000   0.2886751   0.0000000), wk =   0.0312500
        k(    6) = (   0.0000000   0.2886751   0.0949495), wk =   0.0312500
        k(    7) = (   0.0000000   0.4330127   0.0000000), wk =   0.0312500
        k(    8) = (   0.0000000   0.4330127   0.0949495), wk =   0.0312500
        k(    9) = (   0.0000000  -0.5773503   0.0000000), wk =   0.0156250
        k(   10) = (   0.0000000  -0.5773503   0.0949495), wk =   0.0312500
        k(   11) = (   0.1250000   0.2165064   0.0000000), wk =   0.0312500
        k(   12) = (   0.1250000   0.2165064   0.0949495), wk =   0.0625000
        k(   13) = (   0.1250000   0.3608439   0.0000000), wk =   0.0625000
        k(   14) = (   0.1250000   0.3608439   0.0949495), wk =   0.0625000
        k(   15) = (   0.1250000   0.5051815   0.0000000), wk =   0.0625000
        k(   16) = (   0.1250000   0.5051815   0.0949495), wk =   0.0625000
        k(   17) = (   0.2500000   0.4330127   0.0000000), wk =   0.0312500
        k(   18) = (   0.2500000   0.4330127   0.0949495), wk =   0.0625000
        k(   19) = (   0.2500000   0.5773503   0.0000000), wk =   0.0312500
        k(   20) = (   0.2500000   0.5773503   0.0949495), wk =   0.0625000
        k(   21) = (   0.0000000  -0.1443376   0.0949495), wk =   0.0312500
        k(   22) = (   0.0000000  -0.2886751   0.0949495), wk =   0.0312500
        k(   23) = (   0.0000000  -0.4330127   0.0949495), wk =   0.0312500
        k(   24) = (  -0.1250000  -0.3608439   0.0949495), wk =   0.0625000
        k(   25) = (  -0.1250000  -0.5051815   0.0949495), wk =   0.0625000

                       cryst. coord.
        k(    1) = (   0.0000000   0.0000000   0.0000000), wk =   0.0052083
        k(    2) = (   0.0000000   0.0000000   0.3333333), wk =   0.0104167
        k(    3) = (   0.0000000   0.1250000   0.0000000), wk =   0.0312500
        k(    4) = (   0.0000000   0.1250000   0.3333333), wk =   0.0312500
        k(    5) = (   0.0000000   0.2500000   0.0000000), wk =   0.0312500
        k(    6) = (   0.0000000   0.2500000   0.3333333), wk =   0.0312500
        k(    7) = (   0.0000000   0.3750000   0.0000000), wk =   0.0312500
        k(    8) = (   0.0000000   0.3750000   0.3333333), wk =   0.0312500
        k(    9) = (   0.0000000  -0.5000000   0.0000000), wk =   0.0156250
        k(   10) = (   0.0000000  -0.5000000   0.3333333), wk =   0.0312500
        k(   11) = (   0.1250000   0.1250000   0.0000000), wk =   0.0312500
        k(   12) = (   0.1250000   0.1250000   0.3333333), wk =   0.0625000
        k(   13) = (   0.1250000   0.2500000   0.0000000), wk =   0.0625000
        k(   14) = (   0.1250000   0.2500000   0.3333333), wk =   0.0625000
        k(   15) = (   0.1250000   0.3750000   0.0000000), wk =   0.0625000
        k(   16) = (   0.1250000   0.3750000   0.3333333), wk =   0.0625000
        k(   17) = (   0.2500000   0.2500000   0.0000000), wk =   0.0312500
        k(   18) = (   0.2500000   0.2500000   0.3333333), wk =   0.0625000
        k(   19) = (   0.2500000   0.3750000   0.0000000), wk =   0.0312500
        k(   20) = (   0.2500000   0.3750000   0.3333333), wk =   0.0625000
        k(   21) = (   0.0000000  -0.1250000   0.3333333), wk =   0.0312500
        k(   22) = (   0.0000000  -0.2500000   0.3333333), wk =   0.0312500
        k(   23) = (   0.0000000  -0.3750000   0.3333333), wk =   0.0312500
        k(   24) = (  -0.1250000  -0.2500000   0.3333333), wk =   0.0625000
        k(   25) = (  -0.1250000  -0.3750000   0.3333333), wk =   0.0625000

     Dense  grid:    81725 G-vectors     FFT dimensions: (  40,  40, 135)

     Smooth grid:    28863 G-vectors     FFT dimensions: (  27,  27,  96)

     Dynamical RAM for                 wfc:       1.32 MB

     Dynamical RAM for     wfc (w. buffer):      67.44 MB

     Dynamical RAM for           str. fact:       3.74 MB

     Dynamical RAM for           local pot:       0.00 MB

     Dynamical RAM for          nlocal pot:       2.31 MB

     Dynamical RAM for                qrad:       5.27 MB

     Dynamical RAM for          rho,v,vnew:      17.37 MB

     Dynamical RAM for               rhoin:       5.79 MB

     Dynamical RAM for            rho*nmix:      39.90 MB

     Dynamical RAM for           G-vectors:       4.90 MB

     Dynamical RAM for          h,s,v(r/c):       0.11 MB

     Dynamical RAM for          <psi|beta>:       0.02 MB

     Dynamical RAM for                 psi:       2.64 MB

     Dynamical RAM for                hpsi:       2.64 MB

     Dynamical RAM for                spsi:       2.64 MB

     Dynamical RAM for      wfcinit/wfcrot:       2.66 MB

     Dynamical RAM for           addusdens:     235.69 MB

     Dynamical RAM for          addusforce:     238.20 MB

     Estimated static dynamical RAM per process >     121.70 MB

     Estimated max dynamical RAM per process >     399.80 MB

     Check: negative core charge=   -0.000006
     Generating pointlists ...
     new r_m :   0.2765 (alat units)  1.4733 (a.u.) for type    1
     new r_m :   0.2765 (alat units)  1.4733 (a.u.) for type    2
     new r_m :   0.4125 (alat units)  2.1982 (a.u.) for type    3

     Initial potential from superposition of free atoms

     starting charge      31.9951, renormalised to      32.0000
     Starting wfcs are   23 randomized atomic wfcs +    1 random wfcs
     Checking if some PAW data can be deallocated... 

     total cpu time spent up to now is        3.3 secs

     Self-consistent Calculation
[tb_dev] Currently allocated     6.36E-01 Mbytes, locked:    0 /   6
[tb_pin] Currently allocated     0.00E+00 Mbytes, locked:    0 /   0

     iteration #  1     ecut=    60.00 Ry     beta= 0.30
     Davidson diagonalization with overlap

---- Real-time Memory Report at c_bands before calling an iterative solver
           695 MiB given to the printing process from OS
             0 MiB allocation reported by mallinfo(arena+hblkhd)
        846422 MiB available memory on the node where the printing process lives
     GPU memory used/free/total (MiB): 1094 / 80056 / 81151
------------------
     ethr =  1.00E-02,  avg # of iterations =  8.5

     total cpu time spent up to now is        5.3 secs

     total energy              =    -474.66582687 Ry
     estimated scf accuracy    <       1.93734663 Ry

     total magnetization       =     4.49 Bohr mag/cell
     absolute magnetization    =     4.49 Bohr mag/cell
[tb_dev] Currently allocated     3.05E-05 Mbytes, locked:    0 /   2
[tb_pin] Currently allocated     0.00E+00 Mbytes, locked:    0 /   0

     iteration #  2     ecut=    60.00 Ry     beta= 0.30
     Davidson diagonalization with overlap

---- Real-time Memory Report at c_bands before calling an iterative solver
           741 MiB given to the printing process from OS
             0 MiB allocation reported by mallinfo(arena+hblkhd)
        846398 MiB available memory on the node where the printing process lives
     GPU memory used/free/total (MiB): 1114 / 80036 / 81151
------------------
     ethr =  6.05E-03,  avg # of iterations =  1.9

     total cpu time spent up to now is        6.5 secs

     total energy              =    -474.78022750 Ry
     estimated scf accuracy    <       1.01031100 Ry

     total magnetization       =     3.25 Bohr mag/cell
     absolute magnetization    =     3.25 Bohr mag/cell
[tb_dev] Currently allocated     3.05E-05 Mbytes, locked:    0 /   2
[tb_pin] Currently allocated     0.00E+00 Mbytes, locked:    0 /   0

     iteration #  3     ecut=    60.00 Ry     beta= 0.30
     Davidson diagonalization with overlap

---- Real-time Memory Report at c_bands before calling an iterative solver
           745 MiB given to the printing process from OS
             0 MiB allocation reported by mallinfo(arena+hblkhd)
        846346 MiB available memory on the node where the printing process lives
     GPU memory used/free/total (MiB): 1114 / 80036 / 81151
------------------
     ethr =  3.16E-03,  avg # of iterations =  1.6

     total cpu time spent up to now is        7.7 secs

     total energy              =    -474.85911482 Ry
     estimated scf accuracy    <       0.61976616 Ry

     total magnetization       =     2.12 Bohr mag/cell
     absolute magnetization    =     2.16 Bohr mag/cell
[tb_dev] Currently allocated     3.05E-05 Mbytes, locked:    0 /   2
[tb_pin] Currently allocated     0.00E+00 Mbytes, locked:    0 /   0

     iteration #  4     ecut=    60.00 Ry     beta= 0.30
     Davidson diagonalization with overlap

---- Real-time Memory Report at c_bands before calling an iterative solver
           746 MiB given to the printing process from OS
             0 MiB allocation reported by mallinfo(arena+hblkhd)
        846341 MiB available memory on the node where the printing process lives
     GPU memory used/free/total (MiB): 1114 / 80036 / 81151
------------------
     ethr =  1.94E-03,  avg # of iterations =  1.3

     total cpu time spent up to now is        8.7 secs

     total energy              =    -474.90672911 Ry
     estimated scf accuracy    <       0.19402133 Ry

     total magnetization       =     1.72 Bohr mag/cell
     absolute magnetization    =     1.89 Bohr mag/cell
[tb_dev] Currently allocated     3.05E-05 Mbytes, locked:    0 /   2
[tb_pin] Currently allocated     0.00E+00 Mbytes, locked:    0 /   0

     iteration #  5     ecut=    60.00 Ry     beta= 0.30
     Davidson diagonalization with overlap

---- Real-time Memory Report at c_bands before calling an iterative solver
           747 MiB given to the printing process from OS
             0 MiB allocation reported by mallinfo(arena+hblkhd)
        846306 MiB available memory on the node where the printing process lives
     GPU memory used/free/total (MiB): 1114 / 80036 / 81151
------------------
     ethr =  6.06E-04,  avg # of iterations =  3.4

     total cpu time spent up to now is       10.1 secs

     total energy              =    -474.96587044 Ry
     estimated scf accuracy    <       0.03364131 Ry

     total magnetization       =     0.79 Bohr mag/cell
     absolute magnetization    =     1.07 Bohr mag/cell
[tb_dev] Currently allocated     3.05E-05 Mbytes, locked:    0 /   2
[tb_pin] Currently allocated     0.00E+00 Mbytes, locked:    0 /   0

     iteration #  6     ecut=    60.00 Ry     beta= 0.30
     Davidson diagonalization with overlap

---- Real-time Memory Report at c_bands before calling an iterative solver
           751 MiB given to the printing process from OS
             0 MiB allocation reported by mallinfo(arena+hblkhd)
        846785 MiB available memory on the node where the printing process lives
     GPU memory used/free/total (MiB): 1114 / 80036 / 81151
------------------
     ethr =  1.05E-04,  avg # of iterations =  8.0

     total cpu time spent up to now is       12.0 secs

     total energy              =    -474.97298288 Ry
     estimated scf accuracy    <       0.01675609 Ry

     total magnetization       =     0.82 Bohr mag/cell
     absolute magnetization    =     0.89 Bohr mag/cell
[tb_dev] Currently allocated     3.05E-05 Mbytes, locked:    0 /   2
[tb_pin] Currently allocated     0.00E+00 Mbytes, locked:    0 /   0

     iteration #  7     ecut=    60.00 Ry     beta= 0.30
     Davidson diagonalization with overlap

---- Real-time Memory Report at c_bands before calling an iterative solver
           754 MiB given to the printing process from OS
             0 MiB allocation reported by mallinfo(arena+hblkhd)
        846600 MiB available memory on the node where the printing process lives
     GPU memory used/free/total (MiB): 1114 / 80036 / 81151
------------------
     ethr =  5.24E-05,  avg # of iterations =  2.3

     total cpu time spent up to now is       13.2 secs

     total energy              =    -474.97353020 Ry
     estimated scf accuracy    <       0.01637421 Ry

     total magnetization       =     0.91 Bohr mag/cell
     absolute magnetization    =     0.97 Bohr mag/cell
[tb_dev] Currently allocated     3.05E-05 Mbytes, locked:    0 /   2
[tb_pin] Currently allocated     0.00E+00 Mbytes, locked:    0 /   0

     iteration #  8     ecut=    60.00 Ry     beta= 0.30
     Davidson diagonalization with overlap

---- Real-time Memory Report at c_bands before calling an iterative solver
           757 MiB given to the printing process from OS
             0 MiB allocation reported by mallinfo(arena+hblkhd)
        846597 MiB available memory on the node where the printing process lives
     GPU memory used/free/total (MiB): 1114 / 80036 / 81151
------------------
     ethr =  5.12E-05,  avg # of iterations =  1.5

     total cpu time spent up to now is       14.3 secs

     total energy              =    -474.97525509 Ry
     estimated scf accuracy    <       0.00873902 Ry

     total magnetization       =     0.83 Bohr mag/cell
     absolute magnetization    =     0.87 Bohr mag/cell
[tb_dev] Currently allocated     3.05E-05 Mbytes, locked:    0 /   2
[tb_pin] Currently allocated     0.00E+00 Mbytes, locked:    0 /   0

     iteration #  9     ecut=    60.00 Ry     beta= 0.30
     Davidson diagonalization with overlap

---- Real-time Memory Report at c_bands before calling an iterative solver
           759 MiB given to the printing process from OS
             0 MiB allocation reported by mallinfo(arena+hblkhd)
        846394 MiB available memory on the node where the printing process lives
     GPU memory used/free/total (MiB): 1114 / 80036 / 81151
------------------
     ethr =  2.73E-05,  avg # of iterations =  2.6

     total cpu time spent up to now is       15.5 secs

     total energy              =    -474.97690648 Ry
     estimated scf accuracy    <       0.01021303 Ry

     total magnetization       =     0.94 Bohr mag/cell
     absolute magnetization    =     0.99 Bohr mag/cell
[tb_dev] Currently allocated     3.05E-05 Mbytes, locked:    0 /   2
[tb_pin] Currently allocated     0.00E+00 Mbytes, locked:    0 /   0

     iteration # 10     ecut=    60.00 Ry     beta= 0.30
     Davidson diagonalization with overlap

---- Real-time Memory Report at c_bands before calling an iterative solver
           761 MiB given to the printing process from OS
             0 MiB allocation reported by mallinfo(arena+hblkhd)
        846356 MiB available memory on the node where the printing process lives
     GPU memory used/free/total (MiB): 1114 / 80036 / 81151
------------------
     ethr =  2.73E-05,  avg # of iterations =  1.3

     total cpu time spent up to now is       16.6 secs

     total energy              =    -474.97716344 Ry
     estimated scf accuracy    <       0.00673607 Ry

     total magnetization       =     0.94 Bohr mag/cell
     absolute magnetization    =     0.99 Bohr mag/cell
[tb_dev] Currently allocated     3.05E-05 Mbytes, locked:    0 /   2
[tb_pin] Currently allocated     0.00E+00 Mbytes, locked:    0 /   0

     iteration # 11     ecut=    60.00 Ry     beta= 0.30
     Davidson diagonalization with overlap

---- Real-time Memory Report at c_bands before calling an iterative solver
           761 MiB given to the printing process from OS
             0 MiB allocation reported by mallinfo(arena+hblkhd)
        846360 MiB available memory on the node where the printing process lives
     GPU memory used/free/total (MiB): 1114 / 80036 / 81151
------------------
     ethr =  2.11E-05,  avg # of iterations =  1.4

     total cpu time spent up to now is       17.7 secs

     total energy              =    -474.97683542 Ry
     estimated scf accuracy    <       0.00861127 Ry

     total magnetization       =     0.93 Bohr mag/cell
     absolute magnetization    =     1.00 Bohr mag/cell
[tb_dev] Currently allocated     3.05E-05 Mbytes, locked:    0 /   2
[tb_pin] Currently allocated     0.00E+00 Mbytes, locked:    0 /   0

     iteration # 12     ecut=    60.00 Ry     beta= 0.30
     Davidson diagonalization with overlap

---- Real-time Memory Report at c_bands before calling an iterative solver
           761 MiB given to the printing process from OS
             0 MiB allocation reported by mallinfo(arena+hblkhd)
        846275 MiB available memory on the node where the printing process lives
     GPU memory used/free/total (MiB): 1114 / 80036 / 81151
------------------
     ethr =  2.11E-05,  avg # of iterations =  1.1

     total cpu time spent up to now is       18.8 secs

     total energy              =    -474.97711441 Ry
     estimated scf accuracy    <       0.00021415 Ry

     total magnetization       =     0.87 Bohr mag/cell
     absolute magnetization    =     0.95 Bohr mag/cell
[tb_dev] Currently allocated     3.05E-05 Mbytes, locked:    0 /   2
[tb_pin] Currently allocated     0.00E+00 Mbytes, locked:    0 /   0

     iteration # 13     ecut=    60.00 Ry     beta= 0.30
     Davidson diagonalization with overlap

---- Real-time Memory Report at c_bands before calling an iterative solver
           761 MiB given to the printing process from OS
             0 MiB allocation reported by mallinfo(arena+hblkhd)
        846749 MiB available memory on the node where the printing process lives
     GPU memory used/free/total (MiB): 1114 / 80036 / 81151
------------------
     c_bands:  1 eigenvalues not converged
     c_bands:  2 eigenvalues not converged
     ethr =  6.69E-07,  avg # of iterations =  9.2

     total cpu time spent up to now is       20.9 secs

     total energy              =    -474.97729684 Ry
     estimated scf accuracy    <       0.00005628 Ry

     total magnetization       =     0.86 Bohr mag/cell
     absolute magnetization    =     0.95 Bohr mag/cell
[tb_dev] Currently allocated     3.05E-05 Mbytes, locked:    0 /   2
[tb_pin] Currently allocated     0.00E+00 Mbytes, locked:    0 /   0

     iteration # 14     ecut=    60.00 Ry     beta= 0.30
     Davidson diagonalization with overlap

---- Real-time Memory Report at c_bands before calling an iterative solver
           761 MiB given to the printing process from OS
             0 MiB allocation reported by mallinfo(arena+hblkhd)
        846504 MiB available memory on the node where the printing process lives
     GPU memory used/free/total (MiB): 1114 / 80036 / 81151
------------------
     c_bands:  1 eigenvalues not converged
     ethr =  1.76E-07,  avg # of iterations =  3.1

     total cpu time spent up to now is       22.2 secs

     total energy              =    -474.97731357 Ry
     estimated scf accuracy    <       0.00000737 Ry

     total magnetization       =     0.85 Bohr mag/cell
     absolute magnetization    =     0.96 Bohr mag/cell
[tb_dev] Currently allocated     3.05E-05 Mbytes, locked:    0 /   2
[tb_pin] Currently allocated     0.00E+00 Mbytes, locked:    0 /   0

     iteration # 15     ecut=    60.00 Ry     beta= 0.30
     Davidson diagonalization with overlap

---- Real-time Memory Report at c_bands before calling an iterative solver
           761 MiB given to the printing process from OS
             0 MiB allocation reported by mallinfo(arena+hblkhd)
        846348 MiB available memory on the node where the printing process lives
     GPU memory used/free/total (MiB): 1114 / 80036 / 81151
------------------
     ethr =  2.30E-08,  avg # of iterations =  5.3

     total cpu time spent up to now is       23.8 secs

     total energy              =    -474.97732243 Ry
     estimated scf accuracy    <       0.00000109 Ry

     total magnetization       =     0.85 Bohr mag/cell
     absolute magnetization    =     0.97 Bohr mag/cell
[tb_dev] Currently allocated     3.05E-05 Mbytes, locked:    0 /   2
[tb_pin] Currently allocated     0.00E+00 Mbytes, locked:    0 /   0

     iteration # 16     ecut=    60.00 Ry     beta= 0.30
     Davidson diagonalization with overlap

---- Real-time Memory Report at c_bands before calling an iterative solver
           761 MiB given to the printing process from OS
             0 MiB allocation reported by mallinfo(arena+hblkhd)
        846821 MiB available memory on the node where the printing process lives
     GPU memory used/free/total (MiB): 1114 / 80036 / 81151
------------------
     ethr =  3.39E-09,  avg # of iterations =  4.7

     total cpu time spent up to now is       25.4 secs

     total energy              =    -474.97732791 Ry
     estimated scf accuracy    <       0.00000049 Ry

     total magnetization       =     0.84 Bohr mag/cell
     absolute magnetization    =     0.97 Bohr mag/cell
[tb_dev] Currently allocated     3.05E-05 Mbytes, locked:    0 /   2
[tb_pin] Currently allocated     0.00E+00 Mbytes, locked:    0 /   0

     iteration # 17     ecut=    60.00 Ry     beta= 0.30
     Davidson diagonalization with overlap

---- Real-time Memory Report at c_bands before calling an iterative solver
           761 MiB given to the printing process from OS
             0 MiB allocation reported by mallinfo(arena+hblkhd)
        846530 MiB available memory on the node where the printing process lives
     GPU memory used/free/total (MiB): 1114 / 80036 / 81151
------------------
     ethr =  1.54E-09,  avg # of iterations =  2.6

     total cpu time spent up to now is       26.6 secs

     total energy              =    -474.97733422 Ry
     estimated scf accuracy    <       0.00000034 Ry

     total magnetization       =     0.83 Bohr mag/cell
     absolute magnetization    =     0.98 Bohr mag/cell
[tb_dev] Currently allocated     3.05E-05 Mbytes, locked:    0 /   2
[tb_pin] Currently allocated     0.00E+00 Mbytes, locked:    0 /   0

     iteration # 18     ecut=    60.00 Ry     beta= 0.30
     Davidson diagonalization with overlap

---- Real-time Memory Report at c_bands before calling an iterative solver
           761 MiB given to the printing process from OS
             0 MiB allocation reported by mallinfo(arena+hblkhd)
        846421 MiB available memory on the node where the printing process lives
     GPU memory used/free/total (MiB): 1114 / 80036 / 81151
------------------
     ethr =  1.07E-09,  avg # of iterations =  2.7

     total cpu time spent up to now is       27.8 secs

     total energy              =    -474.97733885 Ry
     estimated scf accuracy    <       0.00000029 Ry

     total magnetization       =     0.83 Bohr mag/cell
     absolute magnetization    =     0.99 Bohr mag/cell
[tb_dev] Currently allocated     3.05E-05 Mbytes, locked:    0 /   2
[tb_pin] Currently allocated     0.00E+00 Mbytes, locked:    0 /   0

     iteration # 19     ecut=    60.00 Ry     beta= 0.30
     Davidson diagonalization with overlap

---- Real-time Memory Report at c_bands before calling an iterative solver
           761 MiB given to the printing process from OS
             0 MiB allocation reported by mallinfo(arena+hblkhd)
        846267 MiB available memory on the node where the printing process lives
     GPU memory used/free/total (MiB): 1114 / 80036 / 81151
------------------
     ethr =  9.12E-10,  avg # of iterations =  3.1

     total cpu time spent up to now is       29.1 secs

     total energy              =    -474.97734399 Ry
     estimated scf accuracy    <       0.00000026 Ry

     total magnetization       =     0.82 Bohr mag/cell
     absolute magnetization    =     0.99 Bohr mag/cell
[tb_dev] Currently allocated     3.05E-05 Mbytes, locked:    0 /   2
[tb_pin] Currently allocated     0.00E+00 Mbytes, locked:    0 /   0

     iteration # 20     ecut=    60.00 Ry     beta= 0.30
     Davidson diagonalization with overlap

---- Real-time Memory Report at c_bands before calling an iterative solver
           761 MiB given to the printing process from OS
             0 MiB allocation reported by mallinfo(arena+hblkhd)
        846195 MiB available memory on the node where the printing process lives
     GPU memory used/free/total (MiB): 1114 / 80036 / 81151
------------------
     ethr =  8.21E-10,  avg # of iterations =  3.6

     total cpu time spent up to now is       30.5 secs

     total energy              =    -474.97733703 Ry
     estimated scf accuracy    <       0.00000024 Ry

     total magnetization       =     0.81 Bohr mag/cell
     absolute magnetization    =     1.00 Bohr mag/cell
[tb_dev] Currently allocated     3.05E-05 Mbytes, locked:    0 /   2
[tb_pin] Currently allocated     0.00E+00 Mbytes, locked:    0 /   0

     iteration # 21     ecut=    60.00 Ry     beta= 0.30
     Davidson diagonalization with overlap

---- Real-time Memory Report at c_bands before calling an iterative solver
           761 MiB given to the printing process from OS
             0 MiB allocation reported by mallinfo(arena+hblkhd)
        846171 MiB available memory on the node where the printing process lives
     GPU memory used/free/total (MiB): 1114 / 80036 / 81151
------------------
     ethr =  7.54E-10,  avg # of iterations =  4.7

     total cpu time spent up to now is       32.0 secs

     total energy              =    -474.97733670 Ry
     estimated scf accuracy    <       0.00000026 Ry

     total magnetization       =     0.79 Bohr mag/cell
     absolute magnetization    =     1.02 Bohr mag/cell
[tb_dev] Currently allocated     3.05E-05 Mbytes, locked:    0 /   2
[tb_pin] Currently allocated     0.00E+00 Mbytes, locked:    0 /   0

     iteration # 22     ecut=    60.00 Ry     beta= 0.30
     Davidson diagonalization with overlap

---- Real-time Memory Report at c_bands before calling an iterative solver
           761 MiB given to the printing process from OS
             0 MiB allocation reported by mallinfo(arena+hblkhd)
        846180 MiB available memory on the node where the printing process lives
     GPU memory used/free/total (MiB): 1114 / 80036 / 81151
------------------
     ethr =  7.54E-10,  avg # of iterations =  4.6

     total cpu time spent up to now is       33.5 secs

     total energy              =    -474.97736663 Ry
     estimated scf accuracy    <       0.00000042 Ry

     total magnetization       =     0.76 Bohr mag/cell
     absolute magnetization    =     1.05 Bohr mag/cell
[tb_dev] Currently allocated     3.05E-05 Mbytes, locked:    0 /   2
[tb_pin] Currently allocated     0.00E+00 Mbytes, locked:    0 /   0

     iteration # 23     ecut=    60.00 Ry     beta= 0.30
     Davidson diagonalization with overlap

---- Real-time Memory Report at c_bands before calling an iterative solver
           761 MiB given to the printing process from OS
             0 MiB allocation reported by mallinfo(arena+hblkhd)
        846182 MiB available memory on the node where the printing process lives
     GPU memory used/free/total (MiB): 1114 / 80036 / 81151
------------------
     ethr =  7.54E-10,  avg # of iterations =  3.8

     total cpu time spent up to now is       34.9 secs

     total energy              =    -474.97737142 Ry
     estimated scf accuracy    <       0.00000027 Ry

     total magnetization       =     0.77 Bohr mag/cell
     absolute magnetization    =     1.04 Bohr mag/cell
[tb_dev] Currently allocated     3.05E-05 Mbytes, locked:    0 /   2
[tb_pin] Currently allocated     0.00E+00 Mbytes, locked:    0 /   0

     iteration # 24     ecut=    60.00 Ry     beta= 0.30
     Davidson diagonalization with overlap

---- Real-time Memory Report at c_bands before calling an iterative solver
           761 MiB given to the printing process from OS
             0 MiB allocation reported by mallinfo(arena+hblkhd)
        846146 MiB available memory on the node where the printing process lives
     GPU memory used/free/total (MiB): 1114 / 80036 / 81151
------------------
     ethr =  7.54E-10,  avg # of iterations =  4.0
 
     Magnetic moment per site  (integrated on atomic sphere of radius R)
     atom   1 (R=0.276)  charge= 14.0089  magn=  0.6700
     atom   2 (R=0.276)  charge=  5.1556  magn=  0.0826
     atom   3 (R=0.276)  charge=  5.1607  magn=  0.0780
     atom   4 (R=0.413)  charge=  2.3486  magn= -0.0617

     total cpu time spent up to now is       36.2 secs

     End of self-consistent calculation

 ------ SPIN UP ------------


          k = 0.0000 0.0000 0.0000 (  3635 PWs)   bands (ev):

   -93.2131 -56.4389 -56.4087 -56.4087 -44.2413 -16.7997 -14.7287  -2.9871
    -2.5563  -2.5563   0.7326   1.0083   1.0083   1.2287   1.4568   1.4568
     2.4951   4.4762   5.2922   5.2922   9.0087  11.9661  12.7353  14.7370

     occupation numbers 
     1.0000   1.0000   1.0000   1.0000   1.0000   1.0000   1.0000   1.0000
     1.0000   1.0000   1.0000   1.0000   1.0000   1.0000   1.0000   1.0000
     1.0830   0.0000   0.0000   0.0000   0.0000   0.0000   0.0000   0.0000

          k = 0.0000 0.0000 0.0949 (  3682 PWs)   bands (ev):

   -93.2132 -56.4392 -56.4089 -56.4089 -44.2414 -16.7998 -14.7287  -2.9858
    -2.5564  -2.5564   0.6185   1.0082   1.0082   1.4137   1.4566   1.4566
     2.4438   4.4006   5.2920   5.2920   9.4418  10.9366  13.4185  14.8518

     occupation numbers 
     1.0000   1.0000   1.0000   1.0000   1.0000   1.0000   1.0000   1.0000
     1.0000   1.0000   1.0000   1.0000   1.0000   1.0000   1.0000   1.0000
     1.0735   0.0000   0.0000   0.0000   0.0000   0.0000   0.0000   0.0000

          k = 0.0000 0.1443 0.0000 (  3637 PWs)   bands (ev):

   -93.2121 -56.4374 -56.4194 -56.4113 -44.2371 -16.6085 -14.7349  -2.7824
    -2.7194  -2.4315   0.0721   0.4389   1.0781   1.4696   1.5903   1.9151
     2.5758   4.6510   5.0121   5.1876   9.4484  12.3962  13.1829  15.3218

     occupation numbers 
     1.0000   1.0000   1.0000   1.0000   1.0000   1.0000   1.0000   1.0000
     1.0000   1.0000   1.0000   1.0000   1.0000   1.0000   1.0000   1.0001
     1.0633   0.0000   0.0000   0.0000   0.0000   0.0000   0.0000   0.0000

          k = 0.0000 0.1443 0.0949 (  3638 PWs)   bands (ev):

   -93.2121 -56.4374 -56.4193 -56.4113 -44.2371 -16.6085 -14.7349  -2.7816
    -2.7192  -2.4315   0.0727   0.4389   0.9731   1.5259   1.7042   1.9151
     2.5207   4.7475   4.8574   5.1876   9.8178  11.4389  14.0075  15.2193

     occupation numbers 
     1.0000   1.0000   1.0000   1.0000   1.0000   1.0000   1.0000   1.0000
     1.0000   1.0000   1.0000   1.0000   1.0000   1.0000   1.0000   1.0001
     1.0825   0.0000   0.0000   0.0000   0.0000   0.0000   0.0000   0.0000

          k = 0.0000 0.2887 0.0000 (  3607 PWs)   bands (ev):

   -93.2096 -56.4453 -56.4334 -56.4173 -44.2269 -16.1056 -14.7638  -2.9803
    -2.2596  -2.1419  -1.3149  -0.1105   1.2665   1.7241   2.1004   2.1519
     2.4930   4.1718   5.0645   5.9634  10.3722  12.9259  13.4712  14.6754

     occupation numbers 
     1.0000   1.0000   1.0000   1.0000   1.0000   1.0000   1.0000   1.0000
     1.0000   1.0000   1.0000   1.0000   1.0000   1.0000   1.0023   1.0049
     1.0828   0.0000   0.0000   0.0000   0.0000   0.0000   0.0000   0.0000

          k = 0.0000 0.2887 0.0949 (  3619 PWs)   bands (ev):

   -93.2096 -56.4453 -56.4335 -56.4173 -44.2269 -16.1056 -14.7638  -2.9806
    -2.2590  -2.1419  -1.3144  -0.1104   1.2603   1.6965   2.1004   2.2579
     2.4066   4.2257   5.0645   5.8892  10.5734  12.5346  13.3687  15.3507

     occupation numbers 
     1.0000   1.0000   1.0000   1.0000   1.0000   1.0000   1.0000   1.0000
     1.0000   1.0000   1.0000   1.0000   1.0000   1.0000   1.0023   1.0181
     1.0619   0.0000   0.0000   0.0000   0.0000   0.0000   0.0000   0.0000

          k = 0.0000 0.4330 0.0000 (  3602 PWs)   bands (ev):

   -93.2071 -56.4711 -56.4296 -56.4234 -44.2166 -15.5005 -14.8449  -3.4426
    -2.2718  -1.9383  -1.2610  -0.2090   0.7343   1.5426   1.7781   2.1083
     3.3728   4.3994   5.1101   7.7395   9.5040  12.5882  13.8224  14.9108

     occupation numbers 
     1.0000   1.0000   1.0000   1.0000   1.0000   1.0000   1.0000   1.0000
     1.0000   1.0000   1.0000   1.0000   1.0000   1.0000   1.0000   1.0026
     0.0011   0.0000   0.0000   0.0000   0.0000   0.0000   0.0000   0.0000

          k = 0.0000 0.4330 0.0949 (  3600 PWs)   bands (ev):

   -93.2071 -56.4712 -56.4296 -56.4234 -44.2166 -15.5005 -14.8449  -3.4427
    -2.2718  -1.9383  -1.2606  -0.2089   0.7352   1.5421   1.7781   2.1097
     3.3533   4.4267   5.1101   7.7163   9.5078  12.6993  13.7554  14.2995

     occupation numbers 
     1.0000   1.0000   1.0000   1.0000   1.0000   1.0000   1.0000   1.0000
     1.0000   1.0000   1.0000   1.0000   1.0000   1.0000   1.0000   1.0026
     0.0015   0.0000   0.0000   0.0000   0.0000   0.0000   0.0000   0.0000

          k = 0.0000-0.5774 0.0000 (  3610 PWs)   bands (ev):

   -93.2060 -56.4819 -56.4281 -56.4260 -44.2124 -15.0725 -15.0362  -3.8532
    -2.0468  -1.9091  -1.1249  -0.0648   0.5093   1.2499   1.4865   2.0068
     4.1734   4.6169   5.1635   8.1775   9.7163  11.1716  14.1386  14.8301

     occupation numbers 
     1.0000   1.0000   1.0000   1.0000   1.0000   1.0000   1.0000   1.0000
     1.0000   1.0000   1.0000   1.0000   1.0000   1.0000   1.0000   1.0005
     0.0000   0.0000   0.0000   0.0000   0.0000   0.0000   0.0000   0.0000

          k = 0.0000-0.5774 0.0949 (  3582 PWs)   bands (ev):

   -93.2060 -56.4818 -56.4279 -56.4259 -44.2124 -15.0725 -15.0362  -3.8532
    -2.0467  -1.9091  -1.1250  -0.0647   0.5104   1.2497   1.4865   2.0064
     4.1619   4.6290   5.1636   8.1688   9.7428  11.1766  14.0779  14.5544

     occupation numbers 
     1.0000   1.0000   1.0000   1.0000   1.0000   1.0000   1.0000   1.0000
     1.0000   1.0000   1.0000   1.0000   1.0000   1.0000   1.0000   1.0005
     0.0000   0.0000   0.0000   0.0000   0.0000   0.0000   0.0000   0.0000

          k = 0.1250 0.2165 0.0000 (  3623 PWs)   bands (ev):

   -93.2103 -56.4364 -56.4347 -56.4167 -44.2299 -16.2611 -14.7517  -2.8879
    -2.3980  -2.2645  -0.7840  -0.2872   1.4090   1.5849   1.9417   2.2258
     2.5153   4.3708   4.9163   5.6196  10.1592  13.0336  13.9006  14.3443

     occupation numbers 
     1.0000   1.0000   1.0000   1.0000   1.0000   1.0000   1.0000   1.0000
     1.0000   1.0000   1.0000   1.0000   1.0000   1.0000   1.0001   1.0126
     1.0830   0.0000   0.0000   0.0000   0.0000   0.0000   0.0000   0.0000

          k = 0.1250 0.2165 0.0949 (  3623 PWs)   bands (ev):

   -93.2103 -56.4364 -56.4347 -56.4167 -44.2299 -16.2611 -14.7517  -2.8882
    -2.3971  -2.2645  -0.7836  -0.2872   1.3641   1.5855   1.9967   2.2665
     2.4661   4.4146   4.8892   5.5719  10.3671  12.3580  14.3403  14.7103

     occupation numbers 
     1.0000   1.0000   1.0000   1.0000   1.0000   1.0000   1.0000   1.0000
     1.0000   1.0000   1.0000   1.0000   1.0000   1.0000   1.0004   1.0199
     1.0790   0.0000   0.0000   0.0000   0.0000   0.0000   0.0000   0.0000

          k = 0.1250 0.3608 0.0000 (  3612 PWs)   bands (ev):

   -93.2078 -56.4597 -56.4309 -56.4254 -44.2197 -15.7070 -14.7987  -3.0160
    -2.4639  -1.8482  -1.3561  -0.6838   1.0535   1.6170   1.9898   2.3641
     2.9841   4.3430   4.8031   7.0327  10.6161  11.7864  13.8554  14.5428

     occupation numbers 
     1.0000   1.0000   1.0000   1.0000   1.0000   1.0000   1.0000   1.0000
     1.0000   1.0000   1.0000   1.0000   1.0000   1.0000   1.0003   1.0473
     0.2002   0.0000   0.0000   0.0000   0.0000   0.0000   0.0000   0.0000

          k = 0.1250 0.3608 0.0949 (  3609 PWs)   bands (ev):

   -93.2078 -56.4597 -56.4309 -56.4254 -44.2197 -15.7070 -14.7987  -3.0161
    -2.4639  -1.8480  -1.3556  -0.6838   1.0530   1.6169   1.9928   2.3586
     2.9762   4.3747   4.7927   7.0094  10.6411  11.8341  13.6071  14.6289

     occupation numbers 
     1.0000   1.0000   1.0000   1.0000   1.0000   1.0000   1.0000   1.0000
     1.0000   1.0000   1.0000   1.0000   1.0000   1.0000   1.0004   1.0454
     0.2140   0.0000   0.0000   0.0000   0.0000   0.0000   0.0000   0.0000

          k = 0.1250 0.5052 0.0000 (  3591 PWs)   bands (ev):

   -93.2060 -56.4760 -56.4319 -56.4279 -44.2124 -15.1984 -14.9118  -3.5441
    -2.4799  -1.5731  -1.0788  -0.6504   0.4315   1.3743   1.6672   2.2366
     4.1722   4.5723   4.9011   8.4281   9.1505  12.4553  12.6961  14.3071

     occupation numbers 
     1.0000   1.0000   1.0000   1.0000   1.0000   1.0000   1.0000   1.0000
     1.0000   1.0000   1.0000   1.0000   1.0000   1.0000   1.0000   1.0143
     0.0000   0.0000   0.0000   0.0000   0.0000   0.0000   0.0000   0.0000

          k = 0.1250 0.5052 0.0949 (  3600 PWs)   bands (ev):

   -93.2060 -56.4760 -56.4319 -56.4280 -44.2124 -15.1984 -14.9118  -3.5442
    -2.4800  -1.5731  -1.0787  -0.6505   0.4321   1.3742   1.6674   2.2360
     4.1604   4.5891   4.8962   8.4248   9.1517  12.4834  12.6827  14.4049

     occupation numbers 
     1.0000   1.0000   1.0000   1.0000   1.0000   1.0000   1.0000   1.0000
     1.0000   1.0000   1.0000   1.0000   1.0000   1.0000   1.0000   1.0142
     0.0000   0.0000   0.0000   0.0000   0.0000   0.0000   0.0000   0.0000

          k = 0.2500 0.4330 0.0000 (  3605 PWs)   bands (ev):

   -93.2060 -56.4679 -56.4401 -56.4279 -44.2124 -15.2576 -14.8541  -2.9417
    -2.8439  -1.7425  -1.0708  -0.9822   0.4282   1.4421   1.7980   2.4516
     4.1576   4.5568   4.6027   8.7833   8.8321  11.6201  14.1634  14.5980

     occupation numbers 
     1.0000   1.0000   1.0000   1.0000   1.0000   1.0000   1.0000   1.0000
     1.0000   1.0000   1.0000   1.0000   1.0000   1.0000   1.0000   1.0756
     0.0000   0.0000   0.0000   0.0000   0.0000   0.0000   0.0000   0.0000

          k = 0.2500 0.4330 0.0949 (  3614 PWs)   bands (ev):

   -93.2060 -56.4679 -56.4401 -56.4280 -44.2124 -15.2576 -14.8541  -2.9418
    -2.8440  -1.7425  -1.0709  -0.9819   0.4281   1.4421   1.7984   2.4498
     4.1714   4.5273   4.6169   8.7853   8.8427  11.5970  14.1431  14.5896

     occupation numbers 
     1.0000   1.0000   1.0000   1.0000   1.0000   1.0000   1.0000   1.0000
     1.0000   1.0000   1.0000   1.0000   1.0000   1.0000   1.0000   1.0752
     0.0000   0.0000   0.0000   0.0000   0.0000   0.0000   0.0000   0.0000

          k = 0.2500 0.5774 0.0000 (  3600 PWs)   bands (ev):

   -93.2053 -56.4685 -56.4488 -56.4269 -44.2094 -14.9990 -14.9384  -3.1193
    -2.7517  -1.9045  -0.9081  -0.7310  -0.0344   1.1179   2.0338   2.3244
     4.5640   4.5741   5.3438   7.1792  10.7323  11.6418  12.3184  14.8424

     occupation numbers 
     1.0000   1.0000   1.0000   1.0000   1.0000   1.0000   1.0000   1.0000
     1.0000   1.0000   1.0000   1.0000   1.0000   1.0000   1.0008   1.0345
     0.0000   0.0000   0.0000   0.0000   0.0000   0.0000   0.0000   0.0000

          k = 0.2500 0.5774 0.0949 (  3599 PWs)   bands (ev):

   -93.2053 -56.4684 -56.4488 -56.4269 -44.2094 -14.9990 -14.9384  -3.1193
    -2.7517  -1.9045  -0.9080  -0.7310  -0.0342   1.1179   2.0339   2.3240
     4.5686   4.5746   5.3375   7.1761  10.7401  11.6371  12.3455  14.8304

     occupation numbers 
     1.0000   1.0000   1.0000   1.0000   1.0000   1.0000   1.0000   1.0000
     1.0000   1.0000   1.0000   1.0000   1.0000   1.0000   1.0008   1.0344
     0.0000   0.0000   0.0000   0.0000   0.0000   0.0000   0.0000   0.0000

          k = 0.0000-0.1443 0.0949 (  3638 PWs)   bands (ev):

   -93.2121 -56.4374 -56.4193 -56.4113 -44.2371 -16.6085 -14.7349  -2.7812
    -2.7196  -2.4315   0.0718   0.4389   0.9747   1.5309   1.6960   1.9150
     2.5269   4.6479   4.9592   5.1876   9.7835  11.4818  13.9985  15.2138

     occupation numbers 
     1.0000   1.0000   1.0000   1.0000   1.0000   1.0000   1.0000   1.0000
     1.0000   1.0000   1.0000   1.0000   1.0000   1.0000   1.0000   1.0001
     1.0817   0.0000   0.0000   0.0000   0.0000   0.0000   0.0000   0.0000

          k = 0.0000-0.2887 0.0949 (  3619 PWs)   bands (ev):

   -93.2096 -56.4453 -56.4335 -56.4173 -44.2269 -16.1056 -14.7638  -2.9805
    -2.2592  -2.1419  -1.3143  -0.1105   1.2554   1.7041   2.1004   2.2004
     2.4824   4.1695   5.0645   5.9467  10.4529  12.6873  13.4134  15.2530

     occupation numbers 
     1.0000   1.0000   1.0000   1.0000   1.0000   1.0000   1.0000   1.0000
     1.0000   1.0000   1.0000   1.0000   1.0000   1.0000   1.0023   1.0093
     1.0817   0.0000   0.0000   0.0000   0.0000   0.0000   0.0000   0.0000

          k = 0.0000-0.4330 0.0949 (  3600 PWs)   bands (ev):

   -93.2071 -56.4712 -56.4296 -56.4234 -44.2166 -15.5005 -14.8449  -3.4427
    -2.2719  -1.9382  -1.2604  -0.2089   0.7339   1.5431   1.7781   2.1060
     3.3756   4.3952   5.1100   7.7640   9.4844  12.4867  13.7374  14.9113

     occupation numbers 
     1.0000   1.0000   1.0000   1.0000   1.0000   1.0000   1.0000   1.0000
     1.0000   1.0000   1.0000   1.0000   1.0000   1.0000   1.0000   1.0025
     0.0010   0.0000   0.0000   0.0000   0.0000   0.0000   0.0000   0.0000

          k =-0.1250-0.3608 0.0949 (  3609 PWs)   bands (ev):

   -93.2078 -56.4597 -56.4309 -56.4254 -44.2197 -15.7070 -14.7987  -3.0161
    -2.4639  -1.8481  -1.3554  -0.6838   1.0518   1.6176   1.9941   2.3493
     2.9978   4.3421   4.8022   7.0356  10.6017  11.7922  13.7467  14.6149

     occupation numbers 
     1.0000   1.0000   1.0000   1.0000   1.0000   1.0000   1.0000   1.0000
     1.0000   1.0000   1.0000   1.0000   1.0000   1.0000   1.0004   1.0423
     0.1778   0.0000   0.0000   0.0000   0.0000   0.0000   0.0000   0.0000

          k =-0.1250-0.5052 0.0949 (  3600 PWs)   bands (ev):

   -93.2060 -56.4760 -56.4319 -56.4280 -44.2124 -15.1984 -14.9118  -3.5442
    -2.4799  -1.5732  -1.0786  -0.6504   0.4316   1.3744   1.6674   2.2354
     4.1755   4.5685   4.8996   8.4206   9.1807  12.4465  12.6145  14.2841

     occupation numbers 
     1.0000   1.0000   1.0000   1.0000   1.0000   1.0000   1.0000   1.0000
     1.0000   1.0000   1.0000   1.0000   1.0000   1.0000   1.0000   1.0141
     0.0000   0.0000   0.0000   0.0000   0.0000   0.0000   0.0000   0.0000

 ------ SPIN DOWN ----------


          k = 0.0000 0.0000 0.0000 (  3635 PWs)   bands (ev):

   -92.3856 -55.6574 -55.6574 -55.5224 -44.2790 -16.6685 -14.5850  -2.6071
    -2.2802  -2.2802   0.8269   1.0515   1.5643   1.5643   1.7195   1.7195
     3.4035   4.3138   5.6490   5.6490   8.9984  12.0540  12.7821  14.7963

     occupation numbers 
     1.0000   1.0000   1.0000   1.0000   1.0000   1.0000   1.0000   1.0000
     1.0000   1.0000   1.0000   1.0000   1.0000   1.0000   1.0000   1.0000
     0.0006   0.0000   0.0000   0.0000   0.0000   0.0000   0.0000   0.0000

          k = 0.0000 0.0000 0.0949 (  3682 PWs)   bands (ev):

   -92.3857 -55.6575 -55.6575 -55.5227 -44.2791 -16.6686 -14.5850  -2.6048
    -2.2802  -2.2802   0.6270   1.3166   1.5642   1.5642   1.7194   1.7194
     3.3272   4.2691   5.6488   5.6488   9.4219  11.0031  13.4929  14.9340

     occupation numbers 
     1.0000   1.0000   1.0000   1.0000   1.0000   1.0000   1.0000   1.0000
     1.0000   1.0000   1.0000   1.0000   1.0000   1.0000   1.0000   1.0000
     0.0024   0.0000   0.0000   0.0000   0.0000   0.0000   0.0000   0.0000

          k = 0.0000 0.1443 0.0000 (  3637 PWs)   bands (ev):

   -92.3845 -55.6685 -55.6600 -55.5208 -44.2747 -16.4762 -14.5903  -2.4757
    -2.3844  -2.1638   0.3664   0.8229   1.1260   1.3568   2.1544   2.3736
     3.4328   4.6112   5.2534   5.5349   9.4259  12.4766  13.2372  15.3904

     occupation numbers 
     1.0000   1.0000   1.0000   1.0000   1.0000   1.0000   1.0000   1.0000
     1.0000   1.0000   1.0000   1.0000   1.0000   1.0000   1.0050   1.0505
     0.0003   0.0000   0.0000   0.0000   0.0000   0.0000   0.0000   0.0000

          k = 0.0000 0.1443 0.0949 (  3638 PWs)   bands (ev):

   -92.3845 -55.6685 -55.6601 -55.5209 -44.2747 -16.4762 -14.5903  -2.4761
    -2.3822  -2.1638   0.3687   0.8228   0.9586   1.5671   2.1638   2.3736
     3.3713   4.6303   5.1923   5.5349   9.7864  11.5080  14.0832  15.3039

     occupation numbers 
     1.0000   1.0000   1.0000   1.0000   1.0000   1.0000   1.0000   1.0000
     1.0000   1.0000   1.0000   1.0000   1.0000   1.0000   1.0057   1.0505
     0.0011   0.0000   0.0000   0.0000   0.0000   0.0000   0.0000   0.0000

          k = 0.0000 0.2887 0.0000 (  3607 PWs)   bands (ev):

   -92.3819 -55.6954 -55.6663 -55.5166 -44.2643 -15.9705 -14.6173  -2.7344
    -1.9384  -1.8941  -1.0454   0.2044   1.5271   1.9268   2.3299   2.6823
     3.2771   4.5464   5.3924   5.8255  10.3100  12.7980  13.4870  14.7067

     occupation numbers 
     1.0000   1.0000   1.0000   1.0000   1.0000   1.0000   1.0000   1.0000
     1.0000   1.0000   1.0000   1.0000   1.0000   1.0001   1.0362   0.9296
     0.0056   0.0000   0.0000   0.0000   0.0000   0.0000   0.0000   0.0000

          k = 0.0000 0.2887 0.0949 (  3619 PWs)   bands (ev):

   -92.3819 -55.6954 -55.6663 -55.5167 -44.2643 -15.9705 -14.6173  -2.7349
    -1.9375  -1.8941  -1.0441   0.2044   1.4906   1.9459   2.3602   2.6823
     3.2500   4.6230   5.3924   5.7255  10.5035  12.5532  13.2125  15.4331

     occupation numbers 
     1.0000   1.0000   1.0000   1.0000   1.0000   1.0000   1.0000   1.0000
     1.0000   1.0000   1.0000   1.0000   1.0000   1.0001   1.0460   0.9297
     0.0085   0.0000   0.0000   0.0000   0.0000   0.0000   0.0000   0.0000

          k = 0.0000 0.4330 0.0000 (  3602 PWs)   bands (ev):

   -92.3793 -55.7223 -55.6726 -55.5125 -44.2539 -15.3609 -14.6976  -3.2280
    -2.1144  -1.6958  -0.8735  -0.0037   0.9717   2.2966   2.4920   2.8918
     3.0852   4.8226   5.4365   7.5822   9.2615  12.5343  13.6998  14.7045

     occupation numbers 
     1.0000   1.0000   1.0000   1.0000   1.0000   1.0000   1.0000   1.0000
     1.0000   1.0000   1.0000   1.0000   1.0000   1.0269   1.0828   0.3965
     0.0745   0.0000   0.0000   0.0000   0.0000   0.0000   0.0000   0.0000

          k = 0.0000 0.4330 0.0949 (  3600 PWs)   bands (ev):

   -92.3793 -55.7223 -55.6726 -55.5125 -44.2539 -15.3609 -14.6976  -3.2281
    -2.1145  -1.6958  -0.8730  -0.0036   0.9731   2.2934   2.4920   2.9064
     3.0605   4.8477   5.4365   7.5539   9.2652  12.6397  13.6830  14.2662

     occupation numbers 
     1.0000   1.0000   1.0000   1.0000   1.0000   1.0000   1.0000   1.0000
     1.0000   1.0000   1.0000   1.0000   1.0000   1.0261   1.0828   0.3606
     0.0972   0.0000   0.0000   0.0000   0.0000   0.0000   0.0000   0.0000

          k = 0.0000-0.5774 0.0000 (  3610 PWs)   bands (ev):

   -92.3782 -55.7335 -55.6753 -55.5109 -44.2496 -14.9320 -14.8874  -3.6589
    -1.9290  -1.6602  -0.7349   0.0389   0.7091   2.1567   2.2976   2.7537
     3.8535   5.0533   5.4947   7.9229   9.5975  10.9598  14.1557  14.3447

     occupation numbers 
     1.0000   1.0000   1.0000   1.0000   1.0000   1.0000   1.0000   1.0000
     1.0000   1.0000   1.0000   1.0000   1.0000   1.0052   1.0271   0.7681
     0.0000   0.0000   0.0000   0.0000   0.0000   0.0000   0.0000   0.0000

          k = 0.0000-0.5774 0.0949 (  3582 PWs)   bands (ev):

   -92.3782 -55.7334 -55.6752 -55.5107 -44.2495 -14.9320 -14.8874  -3.6589
    -1.9289  -1.6602  -0.7351   0.0389   0.7106   2.1560   2.2976   2.7531
     3.8484   5.0600   5.4947   7.9142   9.6238  10.9635  14.0815  14.3465

     occupation numbers 
     1.0000   1.0000   1.0000   1.0000   1.0000   1.0000   1.0000   1.0000
     1.0000   1.0000   1.0000   1.0000   1.0000   1.0051   1.0271   0.7696
     0.0000   0.0000   0.0000   0.0000   0.0000   0.0000   0.0000   0.0000

          k = 0.1250 0.2165 0.0000 (  3623 PWs)   bands (ev):

   -92.3827 -55.6862 -55.6658 -55.5179 -44.2674 -16.1269 -14.6057  -2.6402
    -2.0559  -1.9915  -0.5343   0.0282   1.5681   1.7296   2.2853   2.7385
     3.3462   4.6855   5.2549   5.5107  10.1184  13.0962  13.9565  14.0707

     occupation numbers 
     1.0000   1.0000   1.0000   1.0000   1.0000   1.0000   1.0000   1.0000
     1.0000   1.0000   1.0000   1.0000   1.0000   1.0000   1.0241   0.8062
     0.0017   0.0000   0.0000   0.0000   0.0000   0.0000   0.0000   0.0000

          k = 0.1250 0.2165 0.0949 (  3623 PWs)   bands (ev):

   -92.3827 -55.6862 -55.6657 -55.5179 -44.2674 -16.1269 -14.6057  -2.6407
    -2.0552  -1.9907  -0.5331   0.0282   1.4442   1.8680   2.2853   2.7534
     3.3161   4.7601   5.1740   5.4866  10.3208  12.4263  14.0674  14.7419

     occupation numbers 
     1.0000   1.0000   1.0000   1.0000   1.0000   1.0000   1.0000   1.0000
     1.0000   1.0000   1.0000   1.0000   1.0000   1.0000   1.0241   0.7688
     0.0029   0.0000   0.0000   0.0000   0.0000   0.0000   0.0000   0.0000

          k = 0.1250 0.3608 0.0000 (  3612 PWs)   bands (ev):

   -92.3801 -55.7104 -55.6748 -55.5138 -44.2570 -15.5692 -14.6512  -2.7823
    -2.2699  -1.5989  -1.0053  -0.4367   1.2846   2.3536   2.6386   2.8366
     3.0462   4.7275   5.1380   6.8769  10.4101  11.6369  13.8461  14.5294

     occupation numbers 
     1.0000   1.0000   1.0000   1.0000   1.0000   1.0000   1.0000   1.0000
     1.0000   1.0000   1.0000   1.0000   1.0000   1.0437   1.0013   0.5428
     0.1124   0.0000   0.0000   0.0000   0.0000   0.0000   0.0000   0.0000

          k = 0.1250 0.3608 0.0949 (  3609 PWs)   bands (ev):

   -92.3801 -55.7104 -55.6749 -55.5137 -44.2570 -15.5692 -14.6512  -2.7825
    -2.2699  -1.5987  -1.0042  -0.4367   1.2830   2.3518   2.6244   2.8564
     3.0361   4.7627   5.1253   6.8473  10.4300  11.6867  13.6412  14.5475

     occupation numbers 
     1.0000   1.0000   1.0000   1.0000   1.0000   1.0000   1.0000   1.0000
     1.0000   1.0000   1.0000   1.0000   1.0000   1.0431   1.0195   0.4888
     0.1244   0.0000   0.0000   0.0000   0.0000   0.0000   0.0000   0.0000

          k = 0.1250 0.5052 0.0000 (  3591 PWs)   bands (ev):

   -92.3782 -55.7273 -55.6814 -55.5108 -44.2496 -15.0563 -14.7645  -3.3476
    -2.3022  -1.3606  -0.7511  -0.4492   0.6626   2.3352   2.4303   2.8966
     3.8640   4.9804   5.2392   8.1537   9.0022  12.2840  12.5423  14.2699

     occupation numbers 
     1.0000   1.0000   1.0000   1.0000   1.0000   1.0000   1.0000   1.0000
     1.0000   1.0000   1.0000   1.0000   1.0000   1.0378   1.0696   0.3847
     0.0000   0.0000   0.0000   0.0000   0.0000   0.0000   0.0000   0.0000

          k = 0.1250 0.5052 0.0949 (  3600 PWs)   bands (ev):

   -92.3782 -55.7273 -55.6814 -55.5108 -44.2496 -15.0563 -14.7645  -3.3477
    -2.3023  -1.3606  -0.7511  -0.4492   0.6635   2.3347   2.4306   2.8955
     3.8597   4.9891   5.2360   8.1505   9.0028  12.3106  12.5294  14.3552

     occupation numbers 
     1.0000   1.0000   1.0000   1.0000   1.0000   1.0000   1.0000   1.0000
     1.0000   1.0000   1.0000   1.0000   1.0000   1.0377   1.0696   0.3874
     0.0000   0.0000   0.0000   0.0000   0.0000   0.0000   0.0000   0.0000

          k = 0.2500 0.4330 0.0000 (  3605 PWs)   bands (ev):

   -92.3782 -55.7189 -55.6900 -55.5108 -44.2496 -15.1162 -14.7061  -2.7647
    -2.6194  -1.5843  -0.8450  -0.6141   0.6568   2.4426   2.5382   3.0742
     3.8702   4.8969   4.9755   8.4751   8.6749  11.4902  14.1143  14.5040

     occupation numbers 
     1.0000   1.0000   1.0000   1.0000   1.0000   1.0000   1.0000   1.0000
     1.0000   1.0000   1.0000   1.0000   1.0000   1.0732   1.0794   0.0841
     0.0000   0.0000   0.0000   0.0000   0.0000   0.0000   0.0000   0.0000

          k = 0.2500 0.4330 0.0949 (  3614 PWs)   bands (ev):

   -92.3782 -55.7190 -55.6900 -55.5108 -44.2496 -15.1162 -14.7061  -2.7648
    -2.6195  -1.5844  -0.8451  -0.6136   0.6566   2.4427   2.5390   3.0693
     3.8779   4.8826   4.9835   8.4748   8.6871  11.4689  14.0917  14.4926

     occupation numbers 
     1.0000   1.0000   1.0000   1.0000   1.0000   1.0000   1.0000   1.0000
     1.0000   1.0000   1.0000   1.0000   1.0000   1.0732   1.0792   0.0886
     0.0000   0.0000   0.0000   0.0000   0.0000   0.0000   0.0000   0.0000

          k = 0.2500 0.5774 0.0000 (  3600 PWs)   bands (ev):

   -92.3775 -55.7195 -55.6990 -55.5096 -44.2465 -14.8566 -14.7895  -2.9288
    -2.5633  -1.7547  -0.6706  -0.3989   0.1629   2.1972   2.7460   2.9911
     4.8763   4.9545   5.0718   6.8700  10.6315  11.4937  12.1062  14.6741

     occupation numbers 
     1.0000   1.0000   1.0000   1.0000   1.0000   1.0000   1.0000   1.0000
     1.0000   1.0000   1.0000   1.0000   1.0000   1.0089   0.7876   0.1885
     0.0000   0.0000   0.0000   0.0000   0.0000   0.0000   0.0000   0.0000

          k = 0.2500 0.5774 0.0949 (  3599 PWs)   bands (ev):

   -92.3775 -55.7195 -55.6991 -55.5096 -44.2465 -14.8566 -14.7895  -2.9289
    -2.5633  -1.7548  -0.6705  -0.3989   0.1632   2.1972   2.7462   2.9904
     4.9025   4.9522   5.0473   6.8663  10.6400  11.4888  12.1325  14.6687

     occupation numbers 
     1.0000   1.0000   1.0000   1.0000   1.0000   1.0000   1.0000   1.0000
     1.0000   1.0000   1.0000   1.0000   1.0000   1.0089   0.7871   0.1897
     0.0000   0.0000   0.0000   0.0000   0.0000   0.0000   0.0000   0.0000

          k = 0.0000-0.1443 0.0949 (  3638 PWs)   bands (ev):

   -92.3845 -55.6685 -55.6601 -55.5209 -44.2747 -16.4762 -14.5903  -2.4757
    -2.3825  -2.1638   0.3654   0.8228   0.9674   1.5587   2.1674   2.3735
     3.3762   4.5918   5.2318   5.5349   9.7519  11.5521  14.0710  15.2994

     occupation numbers 
     1.0000   1.0000   1.0000   1.0000   1.0000   1.0000   1.0000   1.0000
     1.0000   1.0000   1.0000   1.0000   1.0000   1.0000   1.0060   1.0505
     0.0010   0.0000   0.0000   0.0000   0.0000   0.0000   0.0000   0.0000

          k = 0.0000-0.2887 0.0949 (  3619 PWs)   bands (ev):

   -92.3819 -55.6954 -55.6663 -55.5167 -44.2643 -15.9705 -14.6173  -2.7348
    -1.9377  -1.8941  -1.0439   0.2044   1.4795   1.9604   2.3598   2.6823
     3.2685   4.5431   5.3924   5.8071  10.3870  12.6719  13.2944  15.3073

     occupation numbers 
     1.0000   1.0000   1.0000   1.0000   1.0000   1.0000   1.0000   1.0000
     1.0000   1.0000   1.0000   1.0000   1.0000   1.0002   1.0458   0.9296
     0.0064   0.0000   0.0000   0.0000   0.0000   0.0000   0.0000   0.0000

          k = 0.0000-0.4330 0.0949 (  3600 PWs)   bands (ev):

   -92.3793 -55.7223 -55.6726 -55.5125 -44.2539 -15.3609 -14.6976  -3.2281
    -2.1145  -1.6958  -0.8725  -0.0036   0.9708   2.2951   2.4921   2.8805
     3.0988   4.8189   5.4364   7.6053   9.2443  12.4306  13.6354  14.7047

     occupation numbers 
     1.0000   1.0000   1.0000   1.0000   1.0000   1.0000   1.0000   1.0000
     1.0000   1.0000   1.0000   1.0000   1.0000   1.0265   1.0828   0.4253
     0.0640   0.0000   0.0000   0.0000   0.0000   0.0000   0.0000   0.0000

          k =-0.1250-0.3608 0.0949 (  3609 PWs)   bands (ev):

   -92.3801 -55.7104 -55.6749 -55.5137 -44.2570 -15.5692 -14.6512  -2.7825
    -2.2699  -1.5988  -1.0039  -0.4367   1.2806   2.3553   2.6270   2.8328
     3.0662   4.7270   5.1371   6.8772  10.3989  11.6394  13.7708  14.5479

     occupation numbers 
     1.0000   1.0000   1.0000   1.0000   1.0000   1.0000   1.0000   1.0000
     1.0000   1.0000   1.0000   1.0000   1.0000   1.0443   1.0163   0.5533
     0.0916   0.0000   0.0000   0.0000   0.0000   0.0000   0.0000   0.0000

          k =-0.1250-0.5052 0.0949 (  3600 PWs)   bands (ev):

   -92.3782 -55.7273 -55.6814 -55.5108 -44.2496 -15.0563 -14.7645  -3.3477
    -2.3022  -1.3607  -0.7509  -0.4491   0.6628   2.3352   2.4305   2.8940
     3.8662   4.9784   5.2386   8.1463   9.0315  12.2787  12.4700  14.2265

     occupation numbers 
     1.0000   1.0000   1.0000   1.0000   1.0000   1.0000   1.0000   1.0000
     1.0000   1.0000   1.0000   1.0000   1.0000   1.0378   1.0696   0.3911
     0.0000   0.0000   0.0000   0.0000   0.0000   0.0000   0.0000   0.0000

     the Fermi energy is     2.8902 ev

!    total energy              =    -474.97737932 Ry
     total all-electron energy =     -3102.849517 Ry
     estimated scf accuracy    <       0.00000004 Ry
     smearing contrib. (-TS)   =       0.00215539 Ry
     internal energy E=F+TS    =    -474.97953471 Ry

     The total energy is F=E-TS. E is the sum of the following terms:
     one-electron contribution =    -809.33499624 Ry
     hartree contribution      =     412.27020651 Ry
     xc contribution           =     -48.89335014 Ry
     ewald contribution        =      77.68982543 Ry
     one-center paw contrib.   =    -106.71122027 Ry
      -> PAW hartree energy AE =     278.01373348 Ry
      -> PAW hartree energy PS =    -276.66790808 Ry
      -> PAW xc energy AE      =    -154.11631036 Ry
      -> PAW xc energy PS      =      46.05926470 Ry
      -> total E_H with PAW    =     413.61603190 Ry
      -> total E_XC with PAW   =    -156.95039581 Ry

     total magnetization       =     0.76 Bohr mag/cell
     absolute magnetization    =     1.05 Bohr mag/cell

     convergence has been achieved in  24 iterations

     Forces acting on atoms (cartesian axes, Ry/au):

     atom    1 type  1   force =     0.00000000    0.00000000    0.00451216
     atom    2 type  2   force =    -0.00000000   -0.00000000   -0.01103960
     atom    3 type  2   force =     0.00000000    0.00000000    0.00327469
     atom    4 type  3   force =     0.00000000    0.00000000    0.00325275
     The non-local contrib.  to forces
     atom    1 type  1   force =     0.00000000    0.00000000    0.00261079
     atom    2 type  2   force =     0.00000000    0.00000000   -1.28833558
     atom    3 type  2   force =     0.00000000    0.00000000    1.22768180
     atom    4 type  3   force =     0.00000000    0.00000000    0.00365639
     The ionic contribution  to forces
     atom    1 type  1   force =    -0.00000000   -0.00000000    1.58010155
     atom    2 type  2   force =     0.00000000   -0.00000000   41.40385088
     atom    3 type  2   force =    -0.00000000    0.00000000  -40.29068122
     atom    4 type  3   force =     0.00000000   -0.00000000   -2.69327121
     The local contribution  to forces
     atom    1 type  1   force =    -0.00000000   -0.00000000   -1.57779384
     atom    2 type  2   force =     0.00000001   -0.00000001  -40.13727398
     atom    3 type  2   force =    -0.00000001    0.00000001   39.07661776
     atom    4 type  3   force =    -0.00000000   -0.00000000    2.69277051
     The core correction contribution to forces
     atom    1 type  1   force =    -0.00000000    0.00000000   -0.00000887
     atom    2 type  2   force =    -0.00000000    0.00000000    0.01115698
     atom    3 type  2   force =     0.00000000   -0.00000000   -0.01056011
     atom    4 type  3   force =     0.00000000    0.00000000    0.00000000
     The Hubbard contrib.    to forces
     atom    1 type  1   force =     0.00000000    0.00000000    0.00000000
     atom    2 type  2   force =     0.00000000    0.00000000    0.00000000
     atom    3 type  2   force =     0.00000000    0.00000000    0.00000000
     atom    4 type  3   force =     0.00000000    0.00000000    0.00000000
     The SCF correction term to forces
     atom    1 type  1   force =    -0.00000000    0.00000000   -0.00041227
     atom    2 type  2   force =     0.00000000   -0.00000000   -0.00045270
     atom    3 type  2   force =    -0.00000000    0.00000000    0.00020165
     atom    4 type  3   force =    -0.00000000   -0.00000000    0.00008226

     Total force =     0.012788     Total SCF correction =     0.000650

     Writing all to output data dir ./out/pw.save/ :
     XML data file, charge density, pseudopotentials, collected wavefunctions
 
     init_run     :     12.50s CPU      2.91s WALL (       1 calls)
     electrons    :    125.50s CPU     32.90s WALL (       1 calls)
     forces       :      0.54s CPU      0.50s WALL (       1 calls)

     Called by init_run:
     wfcinit      :      0.29s CPU      0.34s WALL (       1 calls)
     wfcinit:atom :      0.04s CPU      0.04s WALL (      50 calls)
     wfcinit:wfcr :      0.18s CPU      0.21s WALL (      50 calls)
     potinit      :     11.70s CPU      2.03s WALL (       1 calls)
     hinit0       :      0.41s CPU      0.41s WALL (       1 calls)

     Called by electrons:
     c_bands      :     15.74s CPU     15.63s WALL (      24 calls)
     sum_band     :      2.79s CPU      2.70s WALL (      24 calls)
     v_of_rho     :      0.41s CPU      0.21s WALL (      25 calls)
     v_h          :      0.28s CPU      0.04s WALL (      25 calls)
     v_xc         :      0.14s CPU      0.18s WALL (      26 calls)
     newd         :      0.57s CPU      0.45s WALL (      25 calls)
                                        0.45s GPU  (      25 calls)
     PAW_pot      :    108.62s CPU     13.58s WALL (      25 calls)
     mix_rho      :      0.86s CPU      0.80s WALL (      24 calls)

     Called by c_bands:
     init_us_2    :      1.05s CPU      0.98s WALL (    2500 calls)
     cegterg      :     13.67s CPU     13.67s WALL (    1200 calls)

     Called by sum_band:
     sum_band:wei :      0.03s CPU      0.03s WALL (      24 calls)
                                        0.03s GPU  (      24 calls)
     sum_band:loo :      1.75s CPU      1.65s WALL (      24 calls)
                                        1.65s GPU  (      24 calls)
     sum_band:buf :      0.22s CPU      0.24s WALL (    1200 calls)
                                        0.23s GPU  (    1200 calls)
     sum_band:ini :      0.50s CPU      0.48s WALL (    1200 calls)
                                        0.47s GPU  (    1200 calls)
     sum_band:cal :      0.05s CPU      0.07s WALL (    1200 calls)
                                        0.06s GPU  (    1200 calls)
     sum_band:bec :      0.26s CPU      0.28s WALL (    1200 calls)
                                        0.26s GPU  (    1200 calls)
     addusdens    :      0.82s CPU      0.82s WALL (      24 calls)
                                        0.82s GPU  (      24 calls)
     addusd:skk   :      0.00s CPU      0.00s WALL (      72 calls)
                                        0.00s GPU  (      72 calls)

     Called by *egterg:
     cdiaghg      :      4.16s CPU      4.31s WALL (    5516 calls)
                                        4.24s GPU  (    5516 calls)
     cegterg:over :      1.24s CPU      1.29s WALL (    4316 calls)
     cegterg:upda :      0.74s CPU      0.74s WALL (    4316 calls)
     cegterg:last :      0.16s CPU      0.15s WALL (    2290 calls)
     h_psi        :      5.10s CPU      5.08s WALL (    5566 calls)
                                        5.01s GPU  (    5566 calls)
     s_psi        :      0.84s CPU      0.88s WALL (    5566 calls)
     g_psi        :      0.02s CPU      0.11s WALL (    4316 calls)
                                        0.05s GPU  (    4316 calls)

     Called by h_psi:
     h_psi:calbec :      0.17s CPU      0.32s WALL (    5566 calls)
                                        0.25s GPU  (    5566 calls)
     vloc_psi     :      3.56s CPU      3.45s WALL (    5566 calls)
                                        3.38s GPU  (    5566 calls)
     add_vuspsi   :      0.77s CPU      0.91s WALL (    5566 calls)
                                        0.84s GPU  (    5566 calls)

     General routines
     calbec       :      0.18s CPU      0.21s WALL (    6966 calls)
     fft          :      3.34s CPU      0.63s WALL (     638 calls)
                                        0.02s GPU  (     588 calls)
     ffts         :      4.51s CPU      0.86s WALL (    1039 calls)
                                        0.03s GPU  (     989 calls)
     fftw         :      0.33s CPU      1.20s WALL (   18432 calls)
                                        0.99s GPU  (   18432 calls)
     interpolate  :      8.03s CPU      1.45s WALL (      50 calls)
 
     Parallel routines

     PAW routines
     PAW_pot      :    108.62s CPU     13.58s WALL (      25 calls)
     PAW_symme    :      0.02s CPU      0.00s WALL (      49 calls)
 
     PWSCF        :   2m19.41s CPU     36.82s WALL

 
   This run was terminated on:   3:21:56  12Jul2026            

=------------------------------------------------------------------------------=
   JOB DONE.
=------------------------------------------------------------------------------=
Warning: ieee_divide_by_zero is signaling
Warning: ieee_inexact is signaling
FORTRAN STOP
