
     Program PWSCF v.7.3.1 starts on 12Jul2026 at  3:51: 7 

     This program is part of the open-source Quantum ESPRESSO suite
     for quantum simulation of materials; please cite
         "P. Giannozzi et al., J. Phys.:Condens. Matter 21 395502 (2009);
         "P. Giannozzi et al., J. Phys.:Condens. Matter 29 465901 (2017);
         "P. Giannozzi et al., J. Chem. Phys. 152 154105 (2020);
          URL http://www.quantum-espresso.org", 
     in publications or presentations arising from this work. More details at
     http://www.quantum-espresso.org/quote

     Parallel version (MPI & OpenMP), running on      14 processor cores
     Number of MPI processes:                 1
     Threads/MPI process:                    14

     MPI processes distributed on     1 nodes
     842196 MiB available memory on the printing compute node when the environment starts
 
     Reading input from pw.in

     Current dimensions of program PWSCF are:
     Max number of different atomic species (ntypx) = 10
     Max number of k-points (npk) =  40000
     Max angular momentum in pseudopotentials (lmaxx) =  4
     file Co.pbe-spn-kjpaw_psl.0.3.1.UPF: wavefunction(s)  3P 3D renormalized
     file O.pbe-n-kjpaw_psl.1.0.0.UPF: wavefunction(s)  2S 2P renormalized
     file Na.pbe-spn-kjpaw_psl.1.0.0.UPF: wavefunction(s)  2P renormalized
 
     Subspace diagonalization in iterative solution of the eigenvalue problem:
     a serial algorithm will be used

 
     G-vector sticks info
     --------------------
     sticks:   dense  smooth     PW     G-vecs:    dense   smooth      PW
     Sum         979     499    151                72573    25753    4225
 
     Using Slab Decomposition
 


     bravais-lattice index     =            4
     lattice parameter (alat)  =       5.4575  a.u.
     unit-cell volume          =     409.4500 (a.u.)^3
     number of atoms/cell      =            4
     number of atomic types    =            3
     number of electrons       =        38.00
     number of Kohn-Sham states=           27
     kinetic-energy cutoff     =      60.0000  Ry
     charge density cutoff     =     480.0000  Ry
     scf convergence threshold =      1.0E-07
     mixing beta               =       0.3000
     number of iterations used =            8  local-TF  mixing
     Exchange-correlation= SLA  PW   PBX  PBC
                           (   1   4   3   4   0   0   0)

     GPU acceleration is ACTIVE.  1 visible GPUs per MPI rank
     GPU-aware MPI enabled


     GPU used by master process:

        Device Number: 0
        Device name: NVIDIA A100-SXM4-80GB
        Compute capability : 80
        Ratio of single to double precision performance  : 2
        Memory Clock Rate (KHz): 1593000
        Memory Bus Width (bits): 5120
        Peak Memory Bandwidth (GB/s): ******

     celldm(1)=   5.457529  celldm(2)=   0.000000  celldm(3)=   2.908587
     celldm(4)=   0.000000  celldm(5)=   0.000000  celldm(6)=   0.000000

     crystal axes: (cart. coord. in units of alat)
               a(1) = (   1.000000   0.000000   0.000000 )  
               a(2) = (  -0.500000   0.866025   0.000000 )  
               a(3) = (   0.000000   0.000000   2.908587 )  

     reciprocal axes: (cart. coord. in units 2 pi/alat)
               b(1) = (  1.000000  0.577350 -0.000000 )  
               b(2) = (  0.000000  1.154701  0.000000 )  
               b(3) = (  0.000000 -0.000000  0.343810 )  


     PseudoPot. # 1 for Co read from file:
     ../../pseudo/Co.pbe-spn-kjpaw_psl.0.3.1.UPF
     MD5 check sum: 3c0a43779828c046024e4f3be63f8e67
     Pseudo is Projector augmented-wave + core cor, Zval = 17.0
     Generated using &quot;atomic&quot; code by A. Dal Corso  v.6.2.2
     Shape of augmentation charge: PSQ
     Using radial grid of 1193 points,  6 beta functions with: 
                l(1) =   0
                l(2) =   0
                l(3) =   1
                l(4) =   1
                l(5) =   2
                l(6) =   2
     Q(r) pseudized with 0 coefficients 


     PseudoPot. # 2 for O  read from file:
     ../../pseudo/O.pbe-n-kjpaw_psl.1.0.0.UPF
     MD5 check sum: e99d9cef9b487d1ca56f5b95ecd0fd7a
     Pseudo is Projector augmented-wave + core cor, Zval =  6.0
     Generated using &quot;atomic&quot; code by A. Dal Corso  v.6.3
     Shape of augmentation charge: PSQ
     Using radial grid of 1095 points,  4 beta functions with: 
                l(1) =   0
                l(2) =   0
                l(3) =   1
                l(4) =   1
     Q(r) pseudized with 0 coefficients 


     PseudoPot. # 3 for Na read from file:
     ../../pseudo/Na.pbe-spn-kjpaw_psl.1.0.0.UPF
     MD5 check sum: 05b4deb74e3932c23ab016979dc8b5d4
     Pseudo is Projector augmented-wave + core cor, Zval =  9.0
     Generated using &quot;atomic&quot; code by A. Dal Corso  v.6.3
     Shape of augmentation charge: PSQ
     Using radial grid of 1121 points,  4 beta functions with: 
                l(1) =   0
                l(2) =   0
                l(3) =   1
                l(4) =   1
     Q(r) pseudized with 0 coefficients 


     atomic species   valence    mass     pseudopotential
     Co               17.00    58.93300     Co( 1.00)
     O                 6.00    15.99900     O ( 1.00)
     Na                9.00    22.98977     Na( 1.00)

     Starting magnetic structure 
     atomic species   magnetization
     Co              0.300
     O               0.000
     Na              0.000

      6 Sym. Ops. (no inversion) found


                                    s                        frac. trans.

      isym =  1     identity                                     

 cryst.   s( 1) = (     1          0          0      )
                  (     0          1          0      )
                  (     0          0          1      )

 cart.    s( 1) = (  1.0000000  0.0000000  0.0000000 )
                  (  0.0000000  1.0000000  0.0000000 )
                  (  0.0000000  0.0000000  1.0000000 )


      isym =  2     120 deg rotation - cryst. axis [0,0,1]       

 cryst.   s( 2) = (     0          1          0      )
                  (    -1         -1          0      )
                  (     0          0          1      )

 cart.    s( 2) = ( -0.5000000 -0.8660254  0.0000000 )
                  (  0.8660254 -0.5000000  0.0000000 )
                  (  0.0000000  0.0000000  1.0000000 )


      isym =  3     120 deg rotation - cryst. axis [0,0,-1]      

 cryst.   s( 3) = (    -1         -1          0      )
                  (     1          0          0      )
                  (     0          0          1      )

 cart.    s( 3) = ( -0.5000000  0.8660254  0.0000000 )
                  ( -0.8660254 -0.5000000  0.0000000 )
                  (  0.0000000  0.0000000  1.0000000 )


      isym =  4     inv. 180 deg rotation - cart. axis [1,0,0]   

 cryst.   s( 4) = (    -1          0          0      )
                  (     1          1          0      )
                  (     0          0          1      )

 cart.    s( 4) = ( -1.0000000  0.0000000  0.0000000 )
                  (  0.0000000  1.0000000  0.0000000 )
                  (  0.0000000  0.0000000  1.0000000 )


      isym =  5     inv. 180 deg rotation - cryst. axis [0,1,0]  

 cryst.   s( 5) = (     1          1          0      )
                  (     0         -1          0      )
                  (     0          0          1      )

 cart.    s( 5) = (  0.5000000  0.8660254  0.0000000 )
                  (  0.8660254 -0.5000000  0.0000000 )
                  (  0.0000000  0.0000000  1.0000000 )


      isym =  6     inv. 180 deg rotation - cryst. axis [1,1,0]  

 cryst.   s( 6) = (     0         -1          0      )
                  (    -1          0          0      )
                  (     0          0          1      )

 cart.    s( 6) = (  0.5000000 -0.8660254  0.0000000 )
                  ( -0.8660254 -0.5000000  0.0000000 )
                  (  0.0000000  0.0000000  1.0000000 )


     point group C_3v (3m)  
     there are  3 classes
     the character table:

       E     2C3   3s_v 
A_1    1.00  1.00  1.00
A_2    1.00  1.00 -1.00
E      2.00 -1.00  0.00

     the symmetry operations in each class and the name of the first element:

     E        1
          identity                                               
     2C3      2    3
          120 deg rotation - cryst. axis [0,0,1]                 
     3s_v     4    5    6
          inv. 180 deg rotation - cart. axis [1,0,0]             

   Cartesian axes

     site n.     atom                  positions (alat units)
         1        Co     tau(   1) = (   0.0000000   0.0000000   0.0000000  )
         2        O      tau(   2) = (  -0.0000000   0.5773503   0.3324100  )
         3        O      tau(   3) = (   0.5000000   0.2886751   2.5761773  )
         4        Na     tau(   4) = (   0.0000000   0.0000000   1.6274238  )

   Crystallographic axes

     site n.     atom                  positions (cryst. coord.)
         1        Co     tau(   1) = (  0.0000000  0.0000000  0.0000000  )
         2        O      tau(   2) = (  0.3333333  0.6666667  0.1142857  )
         3        O      tau(   3) = (  0.6666667  0.3333333  0.8857143  )
         4        Na     tau(   4) = (  0.0000000  0.0000000  0.5595238  )

     number of k points=    25  Marzari-Vanderbilt smearing, width (Ry)=  0.0200
                       cart. coord. in units 2pi/alat
        k(    1) = (   0.0000000   0.0000000   0.0000000), wk =   0.0052083
        k(    2) = (   0.0000000   0.0000000   0.1146032), wk =   0.0104167
        k(    3) = (   0.0000000   0.1443376   0.0000000), wk =   0.0312500
        k(    4) = (   0.0000000   0.1443376   0.1146032), wk =   0.0312500
        k(    5) = (   0.0000000   0.2886751   0.0000000), wk =   0.0312500
        k(    6) = (   0.0000000   0.2886751   0.1146032), wk =   0.0312500
        k(    7) = (   0.0000000   0.4330127   0.0000000), wk =   0.0312500
        k(    8) = (   0.0000000   0.4330127   0.1146032), wk =   0.0312500
        k(    9) = (   0.0000000  -0.5773503   0.0000000), wk =   0.0156250
        k(   10) = (   0.0000000  -0.5773503   0.1146032), wk =   0.0312500
        k(   11) = (   0.1250000   0.2165064   0.0000000), wk =   0.0312500
        k(   12) = (   0.1250000   0.2165064   0.1146032), wk =   0.0625000
        k(   13) = (   0.1250000   0.3608439   0.0000000), wk =   0.0625000
        k(   14) = (   0.1250000   0.3608439   0.1146032), wk =   0.0625000
        k(   15) = (   0.1250000   0.5051815   0.0000000), wk =   0.0625000
        k(   16) = (   0.1250000   0.5051815   0.1146032), wk =   0.0625000
        k(   17) = (   0.2500000   0.4330127   0.0000000), wk =   0.0312500
        k(   18) = (   0.2500000   0.4330127   0.1146032), wk =   0.0625000
        k(   19) = (   0.2500000   0.5773503   0.0000000), wk =   0.0312500
        k(   20) = (   0.2500000   0.5773503   0.1146032), wk =   0.0625000
        k(   21) = (   0.0000000  -0.1443376   0.1146032), wk =   0.0312500
        k(   22) = (   0.0000000  -0.2886751   0.1146032), wk =   0.0312500
        k(   23) = (   0.0000000  -0.4330127   0.1146032), wk =   0.0312500
        k(   24) = (  -0.1250000  -0.3608439   0.1146032), wk =   0.0625000
        k(   25) = (  -0.1250000  -0.5051815   0.1146032), wk =   0.0625000

                       cryst. coord.
        k(    1) = (   0.0000000   0.0000000   0.0000000), wk =   0.0052083
        k(    2) = (   0.0000000   0.0000000   0.3333333), wk =   0.0104167
        k(    3) = (   0.0000000   0.1250000   0.0000000), wk =   0.0312500
        k(    4) = (   0.0000000   0.1250000   0.3333333), wk =   0.0312500
        k(    5) = (   0.0000000   0.2500000   0.0000000), wk =   0.0312500
        k(    6) = (   0.0000000   0.2500000   0.3333333), wk =   0.0312500
        k(    7) = (   0.0000000   0.3750000   0.0000000), wk =   0.0312500
        k(    8) = (   0.0000000   0.3750000   0.3333333), wk =   0.0312500
        k(    9) = (   0.0000000  -0.5000000   0.0000000), wk =   0.0156250
        k(   10) = (   0.0000000  -0.5000000   0.3333333), wk =   0.0312500
        k(   11) = (   0.1250000   0.1250000   0.0000000), wk =   0.0312500
        k(   12) = (   0.1250000   0.1250000   0.3333333), wk =   0.0625000
        k(   13) = (   0.1250000   0.2500000   0.0000000), wk =   0.0625000
        k(   14) = (   0.1250000   0.2500000   0.3333333), wk =   0.0625000
        k(   15) = (   0.1250000   0.3750000   0.0000000), wk =   0.0625000
        k(   16) = (   0.1250000   0.3750000   0.3333333), wk =   0.0625000
        k(   17) = (   0.2500000   0.2500000   0.0000000), wk =   0.0312500
        k(   18) = (   0.2500000   0.2500000   0.3333333), wk =   0.0625000
        k(   19) = (   0.2500000   0.3750000   0.0000000), wk =   0.0312500
        k(   20) = (   0.2500000   0.3750000   0.3333333), wk =   0.0625000
        k(   21) = (   0.0000000  -0.1250000   0.3333333), wk =   0.0312500
        k(   22) = (   0.0000000  -0.2500000   0.3333333), wk =   0.0312500
        k(   23) = (   0.0000000  -0.3750000   0.3333333), wk =   0.0312500
        k(   24) = (  -0.1250000  -0.2500000   0.3333333), wk =   0.0625000
        k(   25) = (  -0.1250000  -0.3750000   0.3333333), wk =   0.0625000

     Dense  grid:    72573 G-vectors     FFT dimensions: (  40,  40, 120)

     Smooth grid:    25753 G-vectors     FFT dimensions: (  27,  27,  80)

     Dynamical RAM for                 wfc:       1.32 MB

     Dynamical RAM for     wfc (w. buffer):      67.51 MB

     Dynamical RAM for           str. fact:       3.32 MB

     Dynamical RAM for           local pot:       0.00 MB

     Dynamical RAM for          nlocal pot:       2.06 MB

     Dynamical RAM for                qrad:       5.27 MB

     Dynamical RAM for          rho,v,vnew:      15.43 MB

     Dynamical RAM for               rhoin:       5.14 MB

     Dynamical RAM for            rho*nmix:      35.44 MB

     Dynamical RAM for           G-vectors:       4.35 MB

     Dynamical RAM for          h,s,v(r/c):       0.13 MB

     Dynamical RAM for          <psi|beta>:       0.02 MB

     Dynamical RAM for                 psi:       2.65 MB

     Dynamical RAM for                hpsi:       2.65 MB

     Dynamical RAM for                spsi:       2.65 MB

     Dynamical RAM for      wfcinit/wfcrot:       2.66 MB

     Dynamical RAM for           addusdens:     209.29 MB

     Dynamical RAM for          addusforce:     211.52 MB

     Estimated static dynamical RAM per process >     116.31 MB

     Estimated max dynamical RAM per process >     363.27 MB

     Check: negative core charge=   -0.000007
     Generating pointlists ...
     new r_m :   0.2748 (alat units)  1.4998 (a.u.) for type    1
     new r_m :   0.2748 (alat units)  1.4998 (a.u.) for type    2
     new r_m :   0.4125 (alat units)  2.2512 (a.u.) for type    3

     Initial potential from superposition of free atoms

     starting charge      37.9934, renormalised to      38.0000
     Starting wfcs are   23 randomized atomic wfcs +    4 random wfcs
     Checking if some PAW data can be deallocated... 

     total cpu time spent up to now is        3.7 secs

     Self-consistent Calculation
[tb_dev] Currently allocated     6.54E-01 Mbytes, locked:    0 /   6
[tb_pin] Currently allocated     0.00E+00 Mbytes, locked:    0 /   0

     iteration #  1     ecut=    60.00 Ry     beta= 0.30
     Davidson diagonalization with overlap

---- Real-time Memory Report at c_bands before calling an iterative solver
           691 MiB given to the printing process from OS
             0 MiB allocation reported by mallinfo(arena+hblkhd)
        841600 MiB available memory on the node where the printing process lives
     GPU memory used/free/total (MiB): 1056 / 80094 / 81151
------------------
     ethr =  1.00E-02,  avg # of iterations =  9.9

     total cpu time spent up to now is        5.9 secs

     total energy              =    -568.99938239 Ry
     estimated scf accuracy    <       1.76941949 Ry

     total magnetization       =     4.21 Bohr mag/cell
     absolute magnetization    =     4.21 Bohr mag/cell
[tb_dev] Currently allocated     3.05E-05 Mbytes, locked:    0 /   2
[tb_pin] Currently allocated     0.00E+00 Mbytes, locked:    0 /   0

     iteration #  2     ecut=    60.00 Ry     beta= 0.30
     Davidson diagonalization with overlap

---- Real-time Memory Report at c_bands before calling an iterative solver
           735 MiB given to the printing process from OS
             0 MiB allocation reported by mallinfo(arena+hblkhd)
        841531 MiB available memory on the node where the printing process lives
     GPU memory used/free/total (MiB): 1074 / 80076 / 81151
------------------
     ethr =  4.66E-03,  avg # of iterations =  2.0

     total cpu time spent up to now is        7.1 secs

     total energy              =    -569.04142219 Ry
     estimated scf accuracy    <       0.81514173 Ry

     total magnetization       =     3.72 Bohr mag/cell
     absolute magnetization    =     3.72 Bohr mag/cell
[tb_dev] Currently allocated     3.05E-05 Mbytes, locked:    0 /   2
[tb_pin] Currently allocated     0.00E+00 Mbytes, locked:    0 /   0

     iteration #  3     ecut=    60.00 Ry     beta= 0.30
     Davidson diagonalization with overlap

---- Real-time Memory Report at c_bands before calling an iterative solver
           737 MiB given to the printing process from OS
             0 MiB allocation reported by mallinfo(arena+hblkhd)
        841525 MiB available memory on the node where the printing process lives
     GPU memory used/free/total (MiB): 1074 / 80076 / 81151
------------------
     ethr =  2.15E-03,  avg # of iterations =  1.9

     total cpu time spent up to now is        8.2 secs

     total energy              =    -569.09789004 Ry
     estimated scf accuracy    <       0.73358103 Ry

     total magnetization       =     2.14 Bohr mag/cell
     absolute magnetization    =     2.17 Bohr mag/cell
[tb_dev] Currently allocated     3.05E-05 Mbytes, locked:    0 /   2
[tb_pin] Currently allocated     0.00E+00 Mbytes, locked:    0 /   0

     iteration #  4     ecut=    60.00 Ry     beta= 0.30
     Davidson diagonalization with overlap

---- Real-time Memory Report at c_bands before calling an iterative solver
           738 MiB given to the printing process from OS
             0 MiB allocation reported by mallinfo(arena+hblkhd)
        841513 MiB available memory on the node where the printing process lives
     GPU memory used/free/total (MiB): 1074 / 80076 / 81151
------------------
     ethr =  1.93E-03,  avg # of iterations =  1.3

     total cpu time spent up to now is        9.3 secs

     total energy              =    -569.09975377 Ry
     estimated scf accuracy    <       0.57654894 Ry

     total magnetization       =     3.31 Bohr mag/cell
     absolute magnetization    =     3.35 Bohr mag/cell
[tb_dev] Currently allocated     3.05E-05 Mbytes, locked:    0 /   2
[tb_pin] Currently allocated     0.00E+00 Mbytes, locked:    0 /   0

     iteration #  5     ecut=    60.00 Ry     beta= 0.30
     Davidson diagonalization with overlap

---- Real-time Memory Report at c_bands before calling an iterative solver
           741 MiB given to the printing process from OS
             0 MiB allocation reported by mallinfo(arena+hblkhd)
        841494 MiB available memory on the node where the printing process lives
     GPU memory used/free/total (MiB): 1074 / 80076 / 81151
------------------
     ethr =  1.52E-03,  avg # of iterations =  1.7

     total cpu time spent up to now is       10.4 secs

     total energy              =    -569.17915574 Ry
     estimated scf accuracy    <       0.09708908 Ry

     total magnetization       =     0.95 Bohr mag/cell
     absolute magnetization    =     1.30 Bohr mag/cell
[tb_dev] Currently allocated     3.05E-05 Mbytes, locked:    0 /   2
[tb_pin] Currently allocated     0.00E+00 Mbytes, locked:    0 /   0

     iteration #  6     ecut=    60.00 Ry     beta= 0.30
     Davidson diagonalization with overlap

---- Real-time Memory Report at c_bands before calling an iterative solver
           742 MiB given to the printing process from OS
             0 MiB allocation reported by mallinfo(arena+hblkhd)
        841502 MiB available memory on the node where the printing process lives
     GPU memory used/free/total (MiB): 1074 / 80076 / 81151
------------------
     ethr =  2.55E-04,  avg # of iterations =  6.7

     total cpu time spent up to now is       12.1 secs

     total energy              =    -569.19250959 Ry
     estimated scf accuracy    <       0.12368476 Ry

     total magnetization       =     0.59 Bohr mag/cell
     absolute magnetization    =     0.93 Bohr mag/cell
[tb_dev] Currently allocated     3.05E-05 Mbytes, locked:    0 /   2
[tb_pin] Currently allocated     0.00E+00 Mbytes, locked:    0 /   0

     iteration #  7     ecut=    60.00 Ry     beta= 0.30
     Davidson diagonalization with overlap

---- Real-time Memory Report at c_bands before calling an iterative solver
           745 MiB given to the printing process from OS
             0 MiB allocation reported by mallinfo(arena+hblkhd)
        841477 MiB available memory on the node where the printing process lives
     GPU memory used/free/total (MiB): 1074 / 80076 / 81151
------------------
     ethr =  2.55E-04,  avg # of iterations =  1.7

     total cpu time spent up to now is       13.3 secs

     total energy              =    -569.20723683 Ry
     estimated scf accuracy    <       0.02583660 Ry

     total magnetization       =     0.61 Bohr mag/cell
     absolute magnetization    =     0.85 Bohr mag/cell
[tb_dev] Currently allocated     3.05E-05 Mbytes, locked:    0 /   2
[tb_pin] Currently allocated     0.00E+00 Mbytes, locked:    0 /   0

     iteration #  8     ecut=    60.00 Ry     beta= 0.30
     Davidson diagonalization with overlap

---- Real-time Memory Report at c_bands before calling an iterative solver
           746 MiB given to the printing process from OS
             0 MiB allocation reported by mallinfo(arena+hblkhd)
        841448 MiB available memory on the node where the printing process lives
     GPU memory used/free/total (MiB): 1074 / 80076 / 81151
------------------
     ethr =  6.80E-05,  avg # of iterations =  5.7

     total cpu time spent up to now is       14.9 secs

     total energy              =    -569.21278038 Ry
     estimated scf accuracy    <       0.01718523 Ry

     total magnetization       =     0.56 Bohr mag/cell
     absolute magnetization    =     0.62 Bohr mag/cell
[tb_dev] Currently allocated     3.05E-05 Mbytes, locked:    0 /   2
[tb_pin] Currently allocated     0.00E+00 Mbytes, locked:    0 /   0

     iteration #  9     ecut=    60.00 Ry     beta= 0.30
     Davidson diagonalization with overlap

---- Real-time Memory Report at c_bands before calling an iterative solver
           749 MiB given to the printing process from OS
             0 MiB allocation reported by mallinfo(arena+hblkhd)
        841408 MiB available memory on the node where the printing process lives
     GPU memory used/free/total (MiB): 1074 / 80076 / 81151
------------------
     ethr =  4.52E-05,  avg # of iterations =  2.0

     total cpu time spent up to now is       16.1 secs

     total energy              =    -569.21020153 Ry
     estimated scf accuracy    <       0.01435902 Ry

     total magnetization       =     0.59 Bohr mag/cell
     absolute magnetization    =     0.64 Bohr mag/cell
[tb_dev] Currently allocated     3.05E-05 Mbytes, locked:    0 /   2
[tb_pin] Currently allocated     0.00E+00 Mbytes, locked:    0 /   0

     iteration # 10     ecut=    60.00 Ry     beta= 0.30
     Davidson diagonalization with overlap

---- Real-time Memory Report at c_bands before calling an iterative solver
           752 MiB given to the printing process from OS
             0 MiB allocation reported by mallinfo(arena+hblkhd)
        841394 MiB available memory on the node where the printing process lives
     GPU memory used/free/total (MiB): 1074 / 80076 / 81151
------------------
     ethr =  3.78E-05,  avg # of iterations =  2.2

     total cpu time spent up to now is       17.3 secs

     total energy              =    -569.21267734 Ry
     estimated scf accuracy    <       0.00375667 Ry

     total magnetization       =     0.65 Bohr mag/cell
     absolute magnetization    =     0.68 Bohr mag/cell
[tb_dev] Currently allocated     3.05E-05 Mbytes, locked:    0 /   2
[tb_pin] Currently allocated     0.00E+00 Mbytes, locked:    0 /   0

     iteration # 11     ecut=    60.00 Ry     beta= 0.30
     Davidson diagonalization with overlap

---- Real-time Memory Report at c_bands before calling an iterative solver
           752 MiB given to the printing process from OS
             0 MiB allocation reported by mallinfo(arena+hblkhd)
        841390 MiB available memory on the node where the printing process lives
     GPU memory used/free/total (MiB): 1074 / 80076 / 81151
------------------
     ethr =  9.89E-06,  avg # of iterations =  4.1

     total cpu time spent up to now is       18.7 secs

     total energy              =    -569.21274829 Ry
     estimated scf accuracy    <       0.00104972 Ry

     total magnetization       =     0.63 Bohr mag/cell
     absolute magnetization    =     0.64 Bohr mag/cell
[tb_dev] Currently allocated     3.05E-05 Mbytes, locked:    0 /   2
[tb_pin] Currently allocated     0.00E+00 Mbytes, locked:    0 /   0

     iteration # 12     ecut=    60.00 Ry     beta= 0.30
     Davidson diagonalization with overlap

---- Real-time Memory Report at c_bands before calling an iterative solver
           752 MiB given to the printing process from OS
             0 MiB allocation reported by mallinfo(arena+hblkhd)
        841381 MiB available memory on the node where the printing process lives
     GPU memory used/free/total (MiB): 1074 / 80076 / 81151
------------------
     c_bands:  1 eigenvalues not converged
     ethr =  2.76E-06,  avg # of iterations =  5.8

     total cpu time spent up to now is       20.4 secs

     total energy              =    -569.21319464 Ry
     estimated scf accuracy    <       0.00094833 Ry

     total magnetization       =     0.62 Bohr mag/cell
     absolute magnetization    =     0.64 Bohr mag/cell
[tb_dev] Currently allocated     3.05E-05 Mbytes, locked:    0 /   2
[tb_pin] Currently allocated     0.00E+00 Mbytes, locked:    0 /   0

     iteration # 13     ecut=    60.00 Ry     beta= 0.30
     Davidson diagonalization with overlap

---- Real-time Memory Report at c_bands before calling an iterative solver
           752 MiB given to the printing process from OS
             0 MiB allocation reported by mallinfo(arena+hblkhd)
        841369 MiB available memory on the node where the printing process lives
     GPU memory used/free/total (MiB): 1074 / 80076 / 81151
------------------
     ethr =  2.50E-06,  avg # of iterations =  1.6

     total cpu time spent up to now is       21.5 secs

     total energy              =    -569.21324385 Ry
     estimated scf accuracy    <       0.00012603 Ry

     total magnetization       =     0.63 Bohr mag/cell
     absolute magnetization    =     0.65 Bohr mag/cell
[tb_dev] Currently allocated     3.05E-05 Mbytes, locked:    0 /   2
[tb_pin] Currently allocated     0.00E+00 Mbytes, locked:    0 /   0

     iteration # 14     ecut=    60.00 Ry     beta= 0.30
     Davidson diagonalization with overlap

---- Real-time Memory Report at c_bands before calling an iterative solver
           752 MiB given to the printing process from OS
             0 MiB allocation reported by mallinfo(arena+hblkhd)
        841373 MiB available memory on the node where the printing process lives
     GPU memory used/free/total (MiB): 1074 / 80076 / 81151
------------------
     ethr =  3.32E-07,  avg # of iterations =  4.9

     total cpu time spent up to now is       23.0 secs

     total energy              =    -569.21329787 Ry
     estimated scf accuracy    <       0.00001200 Ry

     total magnetization       =     0.64 Bohr mag/cell
     absolute magnetization    =     0.66 Bohr mag/cell
[tb_dev] Currently allocated     3.05E-05 Mbytes, locked:    0 /   2
[tb_pin] Currently allocated     0.00E+00 Mbytes, locked:    0 /   0

     iteration # 15     ecut=    60.00 Ry     beta= 0.30
     Davidson diagonalization with overlap

---- Real-time Memory Report at c_bands before calling an iterative solver
           752 MiB given to the printing process from OS
             0 MiB allocation reported by mallinfo(arena+hblkhd)
        841391 MiB available memory on the node where the printing process lives
     GPU memory used/free/total (MiB): 1074 / 80076 / 81151
------------------
     ethr =  3.16E-08,  avg # of iterations =  5.8

     total cpu time spent up to now is       24.7 secs

     total energy              =    -569.21330670 Ry
     estimated scf accuracy    <       0.00000510 Ry

     total magnetization       =     0.64 Bohr mag/cell
     absolute magnetization    =     0.66 Bohr mag/cell
[tb_dev] Currently allocated     3.05E-05 Mbytes, locked:    0 /   2
[tb_pin] Currently allocated     0.00E+00 Mbytes, locked:    0 /   0

     iteration # 16     ecut=    60.00 Ry     beta= 0.30
     Davidson diagonalization with overlap

---- Real-time Memory Report at c_bands before calling an iterative solver
           752 MiB given to the printing process from OS
             0 MiB allocation reported by mallinfo(arena+hblkhd)
        841908 MiB available memory on the node where the printing process lives
     GPU memory used/free/total (MiB): 1074 / 80076 / 81151
------------------
     ethr =  1.34E-08,  avg # of iterations =  2.1

     total cpu time spent up to now is       26.0 secs

     total energy              =    -569.21330857 Ry
     estimated scf accuracy    <       0.00000210 Ry

     total magnetization       =     0.64 Bohr mag/cell
     absolute magnetization    =     0.66 Bohr mag/cell
[tb_dev] Currently allocated     3.05E-05 Mbytes, locked:    0 /   2
[tb_pin] Currently allocated     0.00E+00 Mbytes, locked:    0 /   0

     iteration # 17     ecut=    60.00 Ry     beta= 0.30
     Davidson diagonalization with overlap

---- Real-time Memory Report at c_bands before calling an iterative solver
           752 MiB given to the printing process from OS
             0 MiB allocation reported by mallinfo(arena+hblkhd)
        841648 MiB available memory on the node where the printing process lives
     GPU memory used/free/total (MiB): 1074 / 80076 / 81151
------------------
     ethr =  5.52E-09,  avg # of iterations =  2.9

     total cpu time spent up to now is       27.3 secs

     total energy              =    -569.21330938 Ry
     estimated scf accuracy    <       0.00000026 Ry

     total magnetization       =     0.64 Bohr mag/cell
     absolute magnetization    =     0.66 Bohr mag/cell
[tb_dev] Currently allocated     3.05E-05 Mbytes, locked:    0 /   2
[tb_pin] Currently allocated     0.00E+00 Mbytes, locked:    0 /   0

     iteration # 18     ecut=    60.00 Ry     beta= 0.30
     Davidson diagonalization with overlap

---- Real-time Memory Report at c_bands before calling an iterative solver
           752 MiB given to the printing process from OS
             0 MiB allocation reported by mallinfo(arena+hblkhd)
        841521 MiB available memory on the node where the printing process lives
     GPU memory used/free/total (MiB): 1074 / 80076 / 81151
------------------
     ethr =  6.82E-10,  avg # of iterations =  6.2

     total cpu time spent up to now is       29.1 secs

     total energy              =    -569.21330968 Ry
     estimated scf accuracy    <       0.00000011 Ry

     total magnetization       =     0.64 Bohr mag/cell
     absolute magnetization    =     0.66 Bohr mag/cell
[tb_dev] Currently allocated     3.05E-05 Mbytes, locked:    0 /   2
[tb_pin] Currently allocated     0.00E+00 Mbytes, locked:    0 /   0

     iteration # 19     ecut=    60.00 Ry     beta= 0.30
     Davidson diagonalization with overlap

---- Real-time Memory Report at c_bands before calling an iterative solver
           752 MiB given to the printing process from OS
             0 MiB allocation reported by mallinfo(arena+hblkhd)
        842061 MiB available memory on the node where the printing process lives
     GPU memory used/free/total (MiB): 1074 / 80076 / 81151
------------------
     ethr =  2.99E-10,  avg # of iterations =  3.4
 
     Magnetic moment per site  (integrated on atomic sphere of radius R)
     atom   1 (R=0.275)  charge= 14.1039  magn=  0.4997
     atom   2 (R=0.275)  charge=  5.2130  magn=  0.0542
     atom   3 (R=0.275)  charge=  5.2364  magn=  0.0450
     atom   4 (R=0.413)  charge=  8.2237  magn= -0.0015

     total cpu time spent up to now is       30.4 secs

     End of self-consistent calculation

 ------ SPIN UP ------------


          k = 0.0000 0.0000 0.0000 (  3231 PWs)   bands (ev):

   -90.3679 -53.5983 -53.5754 -53.5754 -48.2151 -20.0651 -20.0255 -20.0255
   -14.0288 -12.1319  -0.3999   0.2283   0.2283   2.8211   3.4126   3.8105
     3.8105   3.8581   3.8581   5.1361   7.6523   7.6523   8.5929  11.8055
    15.0435  16.3774  20.6343

     occupation numbers 
     1.0000   1.0000   1.0000   1.0000   1.0000   1.0000   1.0000   1.0000
     1.0000   1.0000   1.0000   1.0000   1.0000   1.0000   1.0000   1.0000
     1.0000   1.0000   1.0000   1.0035   0.0000   0.0000   0.0000   0.0000
     0.0000   0.0000   0.0000

          k = 0.0000 0.0000 0.1146 (  3237 PWs)   bands (ev):

   -90.3679 -53.5984 -53.5754 -53.5754 -48.2151 -20.0652 -20.0255 -20.0255
   -14.0287 -12.1322  -0.3690   0.2282   0.2282   2.4193   3.8104   3.8104
     3.8580   3.8580   3.9820   5.0427   7.6523   7.6523   8.2286  12.6084
    14.2781  16.4694  20.7041

     occupation numbers 
     1.0000   1.0000   1.0000   1.0000   1.0000   1.0000   1.0000   1.0000
     1.0000   1.0000   1.0000   1.0000   1.0000   1.0000   1.0000   1.0000
     1.0000   1.0000   1.0000   1.0779   0.0000   0.0000   0.0000   0.0000
     0.0000   0.0000   0.0000

          k = 0.0000 0.1443 0.0000 (  3229 PWs)   bands (ev):

   -90.3672 -53.5971 -53.5835 -53.5773 -48.2099 -20.0697 -20.0580 -20.0349
   -13.8580 -12.1344  -0.2127   0.0577   0.3397   2.6642   3.1014   3.2287
     3.7506   4.2222   4.4639   5.2225   7.1510   7.5535   8.9284  12.3874
    15.6524  16.6707  19.1640

     occupation numbers 
     1.0000   1.0000   1.0000   1.0000   1.0000   1.0000   1.0000   1.0000
     1.0000   1.0000   1.0000   1.0000   1.0000   1.0000   1.0000   1.0000
     1.0000   1.0000   1.0002   0.8425   0.0000   0.0000   0.0000   0.0000
     0.0000   0.0000   0.0000

          k = 0.0000 0.1443 0.1146 (  3219 PWs)   bands (ev):

   -90.3672 -53.5971 -53.5835 -53.5773 -48.2099 -20.0696 -20.0579 -20.0349
   -13.8578 -12.1347  -0.1920   0.0571   0.3397   2.6715   2.8830   3.1014
     4.1077   4.3644   4.4639   5.1005   7.2162   7.5535   8.5980  13.0949
    14.7751  17.0229  19.1498

     occupation numbers 
     1.0000   1.0000   1.0000   1.0000   1.0000   1.0000   1.0000   1.0000
     1.0000   1.0000   1.0000   1.0000   1.0000   1.0000   1.0000   1.0000
     1.0000   1.0000   1.0002   1.0437   0.0000   0.0000   0.0000   0.0000
     0.0000   0.0000   0.0000

          k = 0.0000 0.2887 0.0000 (  3212 PWs)   bands (ev):

   -90.3654 -53.6033 -53.5942 -53.5820 -48.1973 -20.1747 -20.0576 -20.0410
   -13.4098 -12.1536  -0.2632   0.3228   0.6043   1.3310   2.5322   3.6549
     4.3062   4.5888   4.6897   5.2412   6.5704   7.4337   9.7311  13.6826
    15.3513  16.8644  17.4212

     occupation numbers 
     1.0000   1.0000   1.0000   1.0000   1.0000   1.0000   1.0000   1.0000
     1.0000   1.0000   1.0000   1.0000   1.0000   1.0000   1.0000   1.0000
     1.0000   1.0019   1.0082   0.7975   0.0000   0.0000   0.0000   0.0000
     0.0000   0.0000   0.0000

          k = 0.0000 0.2887 0.1146 (  3212 PWs)   bands (ev):

   -90.3654 -53.6032 -53.5942 -53.5820 -48.1973 -20.1746 -20.0577 -20.0410
   -13.4097 -12.1537  -0.2697   0.3352   0.6043   1.3407   2.5322   3.5798
     4.2349   4.6897   4.8599   5.0333   6.7353   7.4336   9.5200  14.1227
    15.3461  15.9412  18.3326

     occupation numbers 
     1.0000   1.0000   1.0000   1.0000   1.0000   1.0000   1.0000   1.0000
     1.0000   1.0000   1.0000   1.0000   1.0000   1.0000   1.0000   1.0000
     1.0000   1.0082   1.0461   1.0803   0.0000   0.0000   0.0000   0.0000
     0.0000   0.0000   0.0000

          k = 0.0000 0.4330 0.0000 (  3198 PWs)   bands (ev):

   -90.3636 -53.6229 -53.5913 -53.5867 -48.1847 -20.2779 -20.0802 -20.0238
   -12.8734 -12.2206  -0.7095   0.3360   0.8123   1.3632   2.3401   3.1812
     4.2121   4.4615   4.7096   6.3832   6.9508   7.4713  11.0199  12.0102
    15.2871  15.8182  17.7166

     occupation numbers 
     1.0000   1.0000   1.0000   1.0000   1.0000   1.0000   1.0000   1.0000
     1.0000   1.0000   1.0000   1.0000   1.0000   1.0000   1.0000   1.0000
     1.0000   1.0002   1.0105   0.0000   0.0000   0.0000   0.0000   0.0000
     0.0000   0.0000   0.0000

          k = 0.0000 0.4330 0.1146 (  3216 PWs)   bands (ev):

   -90.3636 -53.6230 -53.5913 -53.5868 -48.1848 -20.2780 -20.0805 -20.0238
   -12.8734 -12.2206  -0.7105   0.3338   0.8122   1.3703   2.3400   3.1862
     4.2091   4.4615   4.7141   6.2174   7.1438   7.4712  10.9592  11.9649
    15.3904  16.1317  16.9917

     occupation numbers 
     1.0000   1.0000   1.0000   1.0000   1.0000   1.0000   1.0000   1.0000
     1.0000   1.0000   1.0000   1.0000   1.0000   1.0000   1.0000   1.0000
     1.0000   1.0002   1.0111   0.0000   0.0000   0.0000   0.0000   0.0000
     0.0000   0.0000   0.0000

          k = 0.0000-0.5774 0.0000 (  3214 PWs)   bands (ev):

   -90.3629 -53.6311 -53.5901 -53.5888 -48.1795 -20.3202 -20.0898 -20.0168
   -12.5499 -12.3345  -1.0915   0.5108   0.8550   1.5538   2.3900   2.9009
     3.9800   4.2537   4.6512   6.9035   7.5199   8.4050   9.6990  12.7774
    13.4035  16.6219  17.0285

     occupation numbers 
     1.0000   1.0000   1.0000   1.0000   1.0000   1.0000   1.0000   1.0000
     1.0000   1.0000   1.0000   1.0000   1.0000   1.0000   1.0000   1.0000
     1.0000   1.0000   1.0049   0.0000   0.0000   0.0000   0.0000   0.0000
     0.0000   0.0000   0.0000

          k = 0.0000-0.5774 0.1146 (  3216 PWs)   bands (ev):

   -90.3629 -53.6312 -53.5901 -53.5888 -48.1795 -20.3204 -20.0898 -20.0167
   -12.5499 -12.3345  -1.0916   0.5089   0.8550   1.5551   2.3900   2.9070
     3.9790   4.2537   4.6495   6.8934   7.5199   8.4186   9.6586  12.7726
    13.5935  16.1519  17.1758

     occupation numbers 
     1.0000   1.0000   1.0000   1.0000   1.0000   1.0000   1.0000   1.0000
     1.0000   1.0000   1.0000   1.0000   1.0000   1.0000   1.0000   1.0000
     1.0000   1.0000   1.0048   0.0000   0.0000   0.0000   0.0000   0.0000
     0.0000   0.0000   0.0000

          k = 0.1250 0.2165 0.0000 (  3225 PWs)   bands (ev):

   -90.3659 -53.5966 -53.5951 -53.5816 -48.2010 -20.1393 -20.0561 -20.0460
   -13.5482 -12.1445  -0.1755   0.2033   0.4897   1.8034   2.3946   3.6812
     4.2708   4.3233   4.7805   5.2182   6.7385   7.3147   9.4794  13.3337
    16.3417  16.8357  17.1744

     occupation numbers 
     1.0000   1.0000   1.0000   1.0000   1.0000   1.0000   1.0000   1.0000
     1.0000   1.0000   1.0000   1.0000   1.0000   1.0000   1.0000   1.0000
     1.0000   1.0000   1.0231   0.8525   0.0000   0.0000   0.0000   0.0000
     0.0000   0.0000   0.0000

          k = 0.1250 0.2165 0.1146 (  3212 PWs)   bands (ev):

   -90.3659 -53.5966 -53.5951 -53.5815 -48.2010 -20.1392 -20.0559 -20.0459
   -13.5481 -12.1446  -0.1814   0.2187   0.4902   1.8125   2.3946   3.4895
     4.2797   4.5023   4.8746   5.1184   6.8324   7.2775   9.3020  13.7763
    15.6461  16.5931  17.9933

     occupation numbers 
     1.0000   1.0000   1.0000   1.0000   1.0000   1.0000   1.0000   1.0000
     1.0000   1.0000   1.0000   1.0000   1.0000   1.0000   1.0000   1.0000
     1.0000   1.0004   1.0511   1.0255   0.0000   0.0000   0.0000   0.0000
     0.0000   0.0000   0.0000

          k = 0.1250 0.3608 0.0000 (  3216 PWs)   bands (ev):

   -90.3641 -53.6143 -53.5923 -53.5882 -48.1884 -20.2323 -20.0897 -20.0289
   -13.0564 -12.1803  -0.3051   0.2114   0.8091   1.2568   1.9635   3.4887
     4.3148   4.5829   4.9122   5.8641   6.7359   7.2228  10.5194  13.5488
    14.7474  17.0802  17.5937

     occupation numbers 
     1.0000   1.0000   1.0000   1.0000   1.0000   1.0000   1.0000   1.0000
     1.0000   1.0000   1.0000   1.0000   1.0000   1.0000   1.0000   1.0000
     1.0000   1.0017   1.0640   0.0012   0.0000   0.0000   0.0000   0.0000
     0.0000   0.0000   0.0000

          k = 0.1250 0.3608 0.1146 (  3205 PWs)   bands (ev):

   -90.3641 -53.6142 -53.5923 -53.5882 -48.1884 -20.2321 -20.0897 -20.0288
   -13.0563 -12.1804  -0.3085   0.2112   0.8115   1.2662   1.9636   3.4827
     4.3142   4.5942   4.8899   5.7811   6.9210   7.1624  10.4530  13.5410
    14.8879  16.7031  17.8248

     occupation numbers 
     1.0000   1.0000   1.0000   1.0000   1.0000   1.0000   1.0000   1.0000
     1.0000   1.0000   1.0000   1.0000   1.0000   1.0000   1.0000   1.0000
     1.0000   1.0021   1.0564   0.0052   0.0000   0.0000   0.0000   0.0000
     0.0000   0.0000   0.0000

          k = 0.1250 0.5052 0.0000 (  3220 PWs)   bands (ev):

   -90.3629 -53.6268 -53.5932 -53.5902 -48.1795 -20.2966 -20.1140 -20.0169
   -12.6166 -12.2684  -0.8041   0.2143   1.0521   1.5538   1.9104   2.8983
     4.0750   4.3788   4.8393   6.8378   7.2252   7.9669  10.7297  12.2030
    14.6543  15.7819  17.1913

     occupation numbers 
     1.0000   1.0000   1.0000   1.0000   1.0000   1.0000   1.0000   1.0000
     1.0000   1.0000   1.0000   1.0000   1.0000   1.0000   1.0000   1.0000
     1.0000   1.0000   1.0394   0.0000   0.0000   0.0000   0.0000   0.0000
     0.0000   0.0000   0.0000

          k = 0.1250 0.5052 0.1146 (  3217 PWs)   bands (ev):

   -90.3629 -53.6267 -53.5932 -53.5901 -48.1795 -20.2965 -20.1141 -20.0168
   -12.6166 -12.2684  -0.8042   0.2132   1.0513   1.5562   1.9102   2.9026
     4.0745   4.3795   4.8363   6.8070   7.2510   7.9713  10.7078  12.1979
    14.7915  15.7127  17.2930

     occupation numbers 
     1.0000   1.0000   1.0000   1.0000   1.0000   1.0000   1.0000   1.0000
     1.0000   1.0000   1.0000   1.0000   1.0000   1.0000   1.0000   1.0000
     1.0000   1.0000   1.0384   0.0000   0.0000   0.0000   0.0000   0.0000
     0.0000   0.0000   0.0000

          k = 0.2500 0.4330 0.0000 (  3215 PWs)   bands (ev):

   -90.3629 -53.6205 -53.5993 -53.5902 -48.1795 -20.2633 -20.1476 -20.0170
   -12.6641 -12.2214  -0.2625  -0.0862   0.8424   1.5044   1.6894   2.9340
     4.1379   4.4752   5.0201   6.7668   6.9252   7.7373  11.7584  12.0870
    14.5373  16.6396  16.9108

     occupation numbers 
     1.0000   1.0000   1.0000   1.0000   1.0000   1.0000   1.0000   1.0000
     1.0000   1.0000   1.0000   1.0000   1.0000   1.0000   1.0000   1.0000
     1.0000   1.0003   1.0825   0.0000   0.0000   0.0000   0.0000   0.0000
     0.0000   0.0000   0.0000

          k = 0.2500 0.4330 0.1146 (  3206 PWs)   bands (ev):

   -90.3629 -53.6205 -53.5993 -53.5901 -48.1795 -20.2633 -20.1475 -20.0168
   -12.6641 -12.2214  -0.2627  -0.0874   0.8427   1.5062   1.6915   2.9338
     4.1385   4.4767   5.0109   6.8126   6.9104   7.6903  11.8092  12.0865
    14.4823  16.6213  16.9668

     occupation numbers 
     1.0000   1.0000   1.0000   1.0000   1.0000   1.0000   1.0000   1.0000
     1.0000   1.0000   1.0000   1.0000   1.0000   1.0000   1.0000   1.0000
     1.0000   1.0003   1.0832   0.0000   0.0000   0.0000   0.0000   0.0000
     0.0000   0.0000   0.0000

          k = 0.2500 0.5774 0.0000 (  3210 PWs)   bands (ev):

   -90.3624 -53.6210 -53.6060 -53.5893 -48.1758 -20.2645 -20.1832 -20.0118
   -12.4730 -12.2584  -0.4038   0.0001   0.6656   1.6513   1.9203   2.4850
     3.8724   4.6716   4.9297   6.9007   6.9251   9.2893  10.2792  13.7384
    13.8573  14.4373  16.5841

     occupation numbers 
     1.0000   1.0000   1.0000   1.0000   1.0000   1.0000   1.0000   1.0000
     1.0000   1.0000   1.0000   1.0000   1.0000   1.0000   1.0000   1.0000
     1.0000   1.0064   1.0696   0.0000   0.0000   0.0000   0.0000   0.0000
     0.0000   0.0000   0.0000

          k = 0.2500 0.5774 0.1146 (  3215 PWs)   bands (ev):

   -90.3624 -53.6210 -53.6060 -53.5893 -48.1758 -20.2646 -20.1831 -20.0119
   -12.4730 -12.2584  -0.4039  -0.0002   0.6660   1.6512   1.9203   2.4854
     3.8725   4.6719   4.9276   6.9073   6.9353   9.2551  10.2531  13.7587
    13.8945  14.5166  16.6114

     occupation numbers 
     1.0000   1.0000   1.0000   1.0000   1.0000   1.0000   1.0000   1.0000
     1.0000   1.0000   1.0000   1.0000   1.0000   1.0000   1.0000   1.0000
     1.0000   1.0065   1.0690   0.0000   0.0000   0.0000   0.0000   0.0000
     0.0000   0.0000   0.0000

          k = 0.0000-0.1443 0.1146 (  3219 PWs)   bands (ev):

   -90.3672 -53.5971 -53.5835 -53.5773 -48.2099 -20.0696 -20.0579 -20.0349
   -13.8578 -12.1347  -0.1901   0.0552   0.3397   2.6366   2.9259   3.1013
     4.0982   4.3592   4.4639   5.1204   7.1625   7.5536   8.6550  13.0414
    14.8143  17.0359  19.1220

     occupation numbers 
     1.0000   1.0000   1.0000   1.0000   1.0000   1.0000   1.0000   1.0000
     1.0000   1.0000   1.0000   1.0000   1.0000   1.0000   1.0000   1.0000
     1.0000   1.0000   1.0002   1.0232   0.0000   0.0000   0.0000   0.0000
     0.0000   0.0000   0.0000

          k = 0.0000-0.2887 0.1146 (  3212 PWs)   bands (ev):

   -90.3654 -53.6032 -53.5942 -53.5820 -48.1973 -20.1746 -20.0577 -20.0410
   -13.4097 -12.1537  -0.2673   0.3307   0.6043   1.3431   2.5321   3.5585
     4.2608   4.6897   4.7308   5.2589   6.5612   7.4337   9.6586  13.8739
    15.4381  16.1031  18.2865

     occupation numbers 
     1.0000   1.0000   1.0000   1.0000   1.0000   1.0000   1.0000   1.0000
     1.0000   1.0000   1.0000   1.0000   1.0000   1.0000   1.0000   1.0000
     1.0000   1.0082   1.0135   0.7524   0.0000   0.0000   0.0000   0.0000
     0.0000   0.0000   0.0000

          k = 0.0000-0.4330 0.1146 (  3216 PWs)   bands (ev):

   -90.3636 -53.6230 -53.5913 -53.5868 -48.1848 -20.2780 -20.0805 -20.0238
   -12.8734 -12.2206  -0.7108   0.3335   0.8122   1.3730   2.3400   3.1776
     4.2140   4.4615   4.6980   6.4219   6.8985   7.4712  11.1136  11.9771
    15.1374  15.9086  17.3324

     occupation numbers 
     1.0000   1.0000   1.0000   1.0000   1.0000   1.0000   1.0000   1.0000
     1.0000   1.0000   1.0000   1.0000   1.0000   1.0000   1.0000   1.0000
     1.0000   1.0002   1.0091   0.0000   0.0000   0.0000   0.0000   0.0000
     0.0000   0.0000   0.0000

          k =-0.1250-0.3608 0.1146 (  3205 PWs)   bands (ev):

   -90.3641 -53.6142 -53.5923 -53.5882 -48.1884 -20.2321 -20.0897 -20.0288
   -13.0563 -12.1804  -0.3082   0.2105   0.8100   1.2696   1.9631   3.4748
     4.3195   4.5990   4.8587   5.9120   6.7369   7.2096  10.5354  13.5149
    14.7815  16.9387  17.7672

     occupation numbers 
     1.0000   1.0000   1.0000   1.0000   1.0000   1.0000   1.0000   1.0000
     1.0000   1.0000   1.0000   1.0000   1.0000   1.0000   1.0000   1.0000
     1.0000   1.0022   1.0457   0.0005   0.0000   0.0000   0.0000   0.0000
     0.0000   0.0000   0.0000

          k =-0.1250-0.5052 0.1146 (  3217 PWs)   bands (ev):

   -90.3629 -53.6267 -53.5932 -53.5901 -48.1795 -20.2965 -20.1141 -20.0168
   -12.6166 -12.2684  -0.8044   0.2133   1.0515   1.5567   1.9108   2.9000
     4.0754   4.3795   4.8338   6.8583   7.2322   7.9155  10.7153  12.3081
    14.7236  15.5416  17.4237

     occupation numbers 
     1.0000   1.0000   1.0000   1.0000   1.0000   1.0000   1.0000   1.0000
     1.0000   1.0000   1.0000   1.0000   1.0000   1.0000   1.0000   1.0000
     1.0000   1.0000   1.0377   0.0000   0.0000   0.0000   0.0000   0.0000
     0.0000   0.0000   0.0000

 ------ SPIN DOWN ----------


          k = 0.0000 0.0000 0.0000 (  3231 PWs)   bands (ev):

   -89.7571 -53.0259 -53.0259 -52.9108 -48.2158 -20.0652 -20.0265 -20.0265
   -13.9488 -12.0437  -0.1650   0.4163   0.4163   2.9286   3.4790   3.9116
     3.9116   4.3224   4.3224   5.8225   7.9167   7.9167   8.6227  11.8628
    15.1209  16.4670  20.6618

     occupation numbers 
     1.0000   1.0000   1.0000   1.0000   1.0000   1.0000   1.0000   1.0000
     1.0000   1.0000   1.0000   1.0000   1.0000   1.0000   1.0000   1.0000
     1.0000   1.0000   1.0000   0.0026   0.0000   0.0000   0.0000   0.0000
     0.0000   0.0000   0.0000

          k = 0.0000 0.0000 0.1146 (  3237 PWs)   bands (ev):

   -89.7571 -53.0259 -53.0259 -52.9108 -48.2158 -20.0653 -20.0265 -20.0265
   -13.9487 -12.0440  -0.1280   0.4163   0.4163   2.4892   3.9114   3.9114
     4.0685   4.3224   4.3224   5.7394   7.9168   7.9168   8.2562  12.6698
    14.3630  16.5366  20.7648

     occupation numbers 
     1.0000   1.0000   1.0000   1.0000   1.0000   1.0000   1.0000   1.0000
     1.0000   1.0000   1.0000   1.0000   1.0000   1.0000   1.0000   1.0000
     1.0000   1.0000   1.0000   0.0099   0.0000   0.0000   0.0000   0.0000
     0.0000   0.0000   0.0000

          k = 0.0000 0.1443 0.0000 (  3229 PWs)   bands (ev):

   -89.7563 -53.0343 -53.0279 -52.9095 -48.2106 -20.0707 -20.0581 -20.0360
   -13.7775 -12.0456   0.0093   0.2480   0.5218   2.8181   3.3148   3.3506
     3.8342   4.6558   4.8327   5.8613   7.4072   7.8111   8.9727  12.4397
    15.7279  16.7636  19.1557

     occupation numbers 
     1.0000   1.0000   1.0000   1.0000   1.0000   1.0000   1.0000   1.0000
     1.0000   1.0000   1.0000   1.0000   1.0000   1.0000   1.0000   1.0000
     1.0000   1.0052   1.0373   0.0013   0.0000   0.0000   0.0000   0.0000
     0.0000   0.0000   0.0000

          k = 0.0000 0.1443 0.1146 (  3219 PWs)   bands (ev):

   -89.7563 -53.0343 -53.0279 -52.9095 -48.2106 -20.0706 -20.0580 -20.0360
   -13.7773 -12.0458   0.0302   0.2514   0.5218   2.8269   2.9675   3.3149
     4.3042   4.6927   4.8327   5.7619   7.4857   7.8111   8.6257  13.1520
    14.8582  17.0957  19.1417

     occupation numbers 
     1.0000   1.0000   1.0000   1.0000   1.0000   1.0000   1.0000   1.0000
     1.0000   1.0000   1.0000   1.0000   1.0000   1.0000   1.0000   1.0000
     1.0000   1.0085   1.0373   0.0070   0.0000   0.0000   0.0000   0.0000
     0.0000   0.0000   0.0000

          k = 0.0000 0.2887 0.0000 (  3212 PWs)   bands (ev):

   -89.7545 -53.0546 -53.0327 -52.9065 -48.1980 -20.1759 -20.0586 -20.0411
   -13.3281 -12.0632  -0.1049   0.5280   0.7725   1.4945   2.7148   3.8063
     4.6874   4.8574   5.1293   5.7386   6.8565   7.6759   9.7676  13.7237
    15.3488  16.9266  17.5230

     occupation numbers 
     1.0000   1.0000   1.0000   1.0000   1.0000   1.0000   1.0000   1.0000
     1.0000   1.0000   1.0000   1.0000   1.0000   1.0000   1.0000   1.0000
     1.0079   1.0453   1.0124   0.0100   0.0000   0.0000   0.0000   0.0000
     0.0000   0.0000   0.0000

          k = 0.0000 0.2887 0.1146 (  3212 PWs)   bands (ev):

   -89.7544 -53.0545 -53.0327 -52.9065 -48.1980 -20.1758 -20.0587 -20.0411
   -13.3280 -12.0634  -0.1121   0.5410   0.7725   1.5086   2.7148   3.7033
     4.6336   5.0502   5.1293   5.6239   7.0255   7.6758   9.5391  14.1645
    15.3537  16.0095  18.4146

     occupation numbers 
     1.0000   1.0000   1.0000   1.0000   1.0000   1.0000   1.0000   1.0000
     1.0000   1.0000   1.0000   1.0000   1.0000   1.0000   1.0000   1.0000
     1.0038   1.0754   1.0125   0.0473   0.0000   0.0000   0.0000   0.0000
     0.0000   0.0000   0.0000

          k = 0.0000 0.4330 0.0000 (  3198 PWs)   bands (ev):

   -89.7526 -53.0749 -53.0375 -52.9034 -48.1854 -20.2791 -20.0813 -20.0238
   -12.7905 -12.1286  -0.5763   0.4374   0.9762   1.6104   2.4549   3.3340
     4.7913   4.9882   5.3068   6.4832   7.1721   7.7095  11.0377  12.0058
    15.3219  15.8361  17.7878

     occupation numbers 
     1.0000   1.0000   1.0000   1.0000   1.0000   1.0000   1.0000   1.0000
     1.0000   1.0000   1.0000   1.0000   1.0000   1.0000   1.0000   1.0000
     1.0257   1.0825   0.6230   0.0000   0.0000   0.0000   0.0000   0.0000
     0.0000   0.0000   0.0000

          k = 0.0000 0.4330 0.1146 (  3216 PWs)   bands (ev):

   -89.7526 -53.0749 -53.0377 -52.9034 -48.1854 -20.2792 -20.0816 -20.0239
   -12.7905 -12.1286  -0.5772   0.4350   0.9761   1.6188   2.4548   3.3392
     4.7841   4.9882   5.3153   6.3268   7.3608   7.7094  10.9708  11.9596
    15.4146  16.1656  17.0516

     occupation numbers 
     1.0000   1.0000   1.0000   1.0000   1.0000   1.0000   1.0000   1.0000
     1.0000   1.0000   1.0000   1.0000   1.0000   1.0000   1.0000   1.0000
     1.0240   1.0825   0.5995   0.0000   0.0000   0.0000   0.0000   0.0000
     0.0000   0.0000   0.0000

          k = 0.0000-0.5774 0.0000 (  3214 PWs)   bands (ev):

   -89.7519 -53.0833 -53.0396 -52.9022 -48.1802 -20.3215 -20.0909 -20.0168
   -12.4693 -12.2387  -0.9706   0.5853   1.0235   1.8107   2.4481   3.0325
     4.6703   4.8349   5.1950   7.2270   7.7603   8.4008   9.6984  12.7896
    13.4120  16.6566  17.0704

     occupation numbers 
     1.0000   1.0000   1.0000   1.0000   1.0000   1.0000   1.0000   1.0000
     1.0000   1.0000   1.0000   1.0000   1.0000   1.0000   1.0000   1.0000
     1.0063   1.0380   0.9029   0.0000   0.0000   0.0000   0.0000   0.0000
     0.0000   0.0000   0.0000

          k = 0.0000-0.5774 0.1146 (  3216 PWs)   bands (ev):

   -89.7519 -53.0834 -53.0396 -52.9021 -48.1802 -20.3217 -20.0909 -20.0167
   -12.4694 -12.2387  -0.9707   0.5833   1.0235   1.8120   2.4481   3.0391
     4.6686   4.8349   5.1938   7.2094   7.7603   8.4243   9.6554  12.7825
    13.6045  16.1799  17.2568

     occupation numbers 
     1.0000   1.0000   1.0000   1.0000   1.0000   1.0000   1.0000   1.0000
     1.0000   1.0000   1.0000   1.0000   1.0000   1.0000   1.0000   1.0000
     1.0062   1.0380   0.9054   0.0000   0.0000   0.0000   0.0000   0.0000
     0.0000   0.0000   0.0000

          k = 0.1250 0.2165 0.0000 (  3225 PWs)   bands (ev):

   -89.7550 -53.0477 -53.0323 -52.9074 -48.2017 -20.1404 -20.0572 -20.0460
   -13.4670 -12.0546  -0.0138   0.4313   0.6616   1.9476   2.5876   3.8137
     4.4317   4.7941   5.1627   5.7948   6.9986   7.5683   9.5202  13.3793
    16.3691  16.8663  17.2722

     occupation numbers 
     1.0000   1.0000   1.0000   1.0000   1.0000   1.0000   1.0000   1.0000
     1.0000   1.0000   1.0000   1.0000   1.0000   1.0000   1.0000   1.0000
     1.0001   1.0264   0.9633   0.0041   0.0000   0.0000   0.0000   0.0000
     0.0000   0.0000   0.0000

          k = 0.1250 0.2165 0.1146 (  3212 PWs)   bands (ev):

   -89.7550 -53.0477 -53.0322 -52.9073 -48.2017 -20.1403 -20.0570 -20.0460
   -13.4668 -12.0547  -0.0206   0.4488   0.6629   1.9605   2.5873   3.5889
     4.6542   4.7958   5.2375   5.7073   7.1009   7.5275   9.3321  13.8234
    15.7298  16.5850  18.0699

     occupation numbers 
     1.0000   1.0000   1.0000   1.0000   1.0000   1.0000   1.0000   1.0000
     1.0000   1.0000   1.0000   1.0000   1.0000   1.0000   1.0000   1.0000
     1.0051   1.0269   0.8067   0.0158   0.0000   0.0000   0.0000   0.0000
     0.0000   0.0000   0.0000

          k = 0.1250 0.3608 0.0000 (  3216 PWs)   bands (ev):

   -89.7532 -53.0660 -53.0392 -52.9043 -48.1891 -20.2335 -20.0908 -20.0290
   -12.9738 -12.0888  -0.1588   0.3370   0.9756   1.4734   2.1172   3.6360
     4.8591   5.2165   5.3748   5.9180   7.0086   7.4652  10.5445  13.5420
    14.7808  17.1183  17.6448

     occupation numbers 
     1.0000   1.0000   1.0000   1.0000   1.0000   1.0000   1.0000   1.0000
     1.0000   1.0000   1.0000   1.0000   1.0000   1.0000   1.0000   1.0000
     1.0459   0.8563   0.4379   0.0004   0.0000   0.0000   0.0000   0.0000
     0.0000   0.0000   0.0000

          k = 0.1250 0.3608 0.1146 (  3205 PWs)   bands (ev):

   -89.7532 -53.0659 -53.0391 -52.9043 -48.1891 -20.2333 -20.0907 -20.0289
   -12.9737 -12.0889  -0.1623   0.3366   0.9772   1.4861   2.1175   3.6272
     4.8552   5.1873   5.3966   5.8516   7.1817   7.4062  10.4703  13.5341
    14.9187  16.7755  17.8419

     occupation numbers 
     1.0000   1.0000   1.0000   1.0000   1.0000   1.0000   1.0000   1.0000
     1.0000   1.0000   1.0000   1.0000   1.0000   1.0000   1.0000   1.0000
     1.0446   0.9185   0.3827   0.0016   0.0000   0.0000   0.0000   0.0000
     0.0000   0.0000   0.0000

          k = 0.1250 0.5052 0.0000 (  3220 PWs)   bands (ev):

   -89.7519 -53.0788 -53.0442 -52.9022 -48.1802 -20.2978 -20.1151 -20.0169
   -12.5341 -12.1746  -0.6826   0.3231   1.1963   1.7579   2.0444   3.0439
     4.8123   4.9360   5.3212   7.1257   7.4607   7.9969  10.7247  12.2150
    14.6634  15.7997  17.2260

     occupation numbers 
     1.0000   1.0000   1.0000   1.0000   1.0000   1.0000   1.0000   1.0000
     1.0000   1.0000   1.0000   1.0000   1.0000   1.0000   1.0000   1.0000
     1.0313   1.0715   0.5830   0.0000   0.0000   0.0000   0.0000   0.0000
     0.0000   0.0000   0.0000

          k = 0.1250 0.5052 0.1146 (  3217 PWs)   bands (ev):

   -89.7519 -53.0788 -53.0442 -52.9022 -48.1802 -20.2977 -20.1152 -20.0169
   -12.5340 -12.1746  -0.6826   0.3219   1.1955   1.7602   2.0444   3.0487
     4.8109   4.9369   5.3182   7.0805   7.4981   8.0055  10.7023  12.2095
    14.7991  15.7278  17.3598

     occupation numbers 
     1.0000   1.0000   1.0000   1.0000   1.0000   1.0000   1.0000   1.0000
     1.0000   1.0000   1.0000   1.0000   1.0000   1.0000   1.0000   1.0000
     1.0309   1.0718   0.5913   0.0000   0.0000   0.0000   0.0000   0.0000
     0.0000   0.0000   0.0000

          k = 0.2500 0.4330 0.0000 (  3215 PWs)   bands (ev):

   -89.7519 -53.0724 -53.0505 -52.9022 -48.1802 -20.2645 -20.1487 -20.0170
   -12.5811 -12.1281  -0.1487   0.0489   0.9428   1.6799   1.8974   3.0828
     4.9091   5.0122   5.4760   6.9789   7.2042   7.7885  11.7572  12.0913
    14.5462  16.6525  16.9230

     occupation numbers 
     1.0000   1.0000   1.0000   1.0000   1.0000   1.0000   1.0000   1.0000
     1.0000   1.0000   1.0000   1.0000   1.0000   1.0000   1.0000   1.0000
     1.0630   1.0831   0.2128   0.0000   0.0000   0.0000   0.0000   0.0000
     0.0000   0.0000   0.0000

          k = 0.2500 0.4330 0.1146 (  3206 PWs)   bands (ev):

   -89.7519 -53.0724 -53.0504 -52.9021 -48.1802 -20.2645 -20.1486 -20.0169
   -12.5811 -12.1282  -0.1488   0.0475   0.9431   1.6805   1.9014   3.0823
     4.9093   5.0141   5.4642   7.0346   7.1849   7.7381  11.8069  12.0926
    14.4888  16.6340  16.9867

     occupation numbers 
     1.0000   1.0000   1.0000   1.0000   1.0000   1.0000   1.0000   1.0000
     1.0000   1.0000   1.0000   1.0000   1.0000   1.0000   1.0000   1.0000
     1.0631   1.0830   0.2345   0.0000   0.0000   0.0000   0.0000   0.0000
     0.0000   0.0000   0.0000

          k = 0.2500 0.5774 0.0000 (  3210 PWs)   bands (ev):

   -89.7514 -53.0729 -53.0574 -52.9013 -48.1765 -20.2657 -20.1843 -20.0119
   -12.3916 -12.1624  -0.2879   0.1183   0.7595   1.8097   2.1343   2.6137
     4.6925   5.1912   5.4146   7.1766   7.1890   9.2879  10.2751  13.7442
    13.8639  14.4466  16.5945

     occupation numbers 
     1.0000   1.0000   1.0000   1.0000   1.0000   1.0000   1.0000   1.0000
     1.0000   1.0000   1.0000   1.0000   1.0000   1.0000   1.0000   1.0000
     1.0085   0.9107   0.3393   0.0000   0.0000   0.0000   0.0000   0.0000
     0.0000   0.0000   0.0000

          k = 0.2500 0.5774 0.1146 (  3215 PWs)   bands (ev):

   -89.7514 -53.0729 -53.0574 -52.9013 -48.1765 -20.2658 -20.1842 -20.0120
   -12.3916 -12.1624  -0.2880   0.1180   0.7599   1.8094   2.1343   2.6144
     4.6926   5.1915   5.4122   7.1882   7.1973   9.2510  10.2471  13.7631
    13.9013  14.5291  16.6267

     occupation numbers 
     1.0000   1.0000   1.0000   1.0000   1.0000   1.0000   1.0000   1.0000
     1.0000   1.0000   1.0000   1.0000   1.0000   1.0000   1.0000   1.0000
     1.0085   0.9100   0.3450   0.0000   0.0000   0.0000   0.0000   0.0000
     0.0000   0.0000   0.0000

          k = 0.0000-0.1443 0.1146 (  3219 PWs)   bands (ev):

   -89.7563 -53.0343 -53.0279 -52.9095 -48.2106 -20.0706 -20.0580 -20.0360
   -13.7773 -12.0459   0.0323   0.2494   0.5218   2.7691   3.0374   3.3148
     4.2752   4.7124   4.8327   5.7729   7.4214   7.8112   8.6932  13.0970
    14.9000  17.1081  19.1146

     occupation numbers 
     1.0000   1.0000   1.0000   1.0000   1.0000   1.0000   1.0000   1.0000
     1.0000   1.0000   1.0000   1.0000   1.0000   1.0000   1.0000   1.0000
     1.0000   1.0108   1.0373   0.0059   0.0000   0.0000   0.0000   0.0000
     0.0000   0.0000   0.0000

          k = 0.0000-0.2887 0.1146 (  3212 PWs)   bands (ev):

   -89.7545 -53.0545 -53.0327 -52.9065 -48.1980 -20.1758 -20.0587 -20.0411
   -13.3280 -12.0634  -0.1100   0.5368   0.7725   1.5112   2.7147   3.6826
     4.6450   5.0596   5.1293   5.7190   6.8476   7.6759   9.6887  13.9116
    15.4355  16.1942  18.3606

     occupation numbers 
     1.0000   1.0000   1.0000   1.0000   1.0000   1.0000   1.0000   1.0000
     1.0000   1.0000   1.0000   1.0000   1.0000   1.0000   1.0000   1.0000
     1.0045   1.0715   1.0125   0.0134   0.0000   0.0000   0.0000   0.0000
     0.0000   0.0000   0.0000

          k = 0.0000-0.4330 0.1146 (  3216 PWs)   bands (ev):

   -89.7526 -53.0749 -53.0377 -52.9034 -48.1854 -20.2792 -20.0816 -20.0239
   -12.7905 -12.1286  -0.5776   0.4347   0.9761   1.6224   2.4548   3.3286
     4.7871   4.9882   5.2957   6.5151   7.1334   7.7095  11.1302  11.9718
    15.1657  15.9265  17.4400

     occupation numbers 
     1.0000   1.0000   1.0000   1.0000   1.0000   1.0000   1.0000   1.0000
     1.0000   1.0000   1.0000   1.0000   1.0000   1.0000   1.0000   1.0000
     1.0247   1.0825   0.6536   0.0000   0.0000   0.0000   0.0000   0.0000
     0.0000   0.0000   0.0000

          k =-0.1250-0.3608 0.1146 (  3205 PWs)   bands (ev):

   -89.7532 -53.0659 -53.0391 -52.9043 -48.1891 -20.2333 -20.0907 -20.0289
   -12.9738 -12.0889  -0.1622   0.3360   0.9760   1.4898   2.1170   3.6178
     4.8613   5.2078   5.3284   5.9876   7.0117   7.4526  10.5566  13.5088
    14.8091  17.0268  17.7885

     occupation numbers 
     1.0000   1.0000   1.0000   1.0000   1.0000   1.0000   1.0000   1.0000
     1.0000   1.0000   1.0000   1.0000   1.0000   1.0000   1.0000   1.0000
     1.0466   0.8759   0.5632   0.0001   0.0000   0.0000   0.0000   0.0000
     0.0000   0.0000   0.0000

          k =-0.1250-0.5052 0.1146 (  3217 PWs)   bands (ev):

   -89.7519 -53.0788 -53.0442 -52.9022 -48.1802 -20.2977 -20.1152 -20.0169
   -12.5341 -12.1746  -0.6829   0.3220   1.1956   1.7606   2.0457   3.0455
     4.8122   4.9365   5.3151   7.1544   7.4670   7.9391  10.7091  12.3204
    14.7346  15.5576  17.4697

     occupation numbers 
     1.0000   1.0000   1.0000   1.0000   1.0000   1.0000   1.0000   1.0000
     1.0000   1.0000   1.0000   1.0000   1.0000   1.0000   1.0000   1.0000
     1.0313   1.0717   0.5999   0.0000   0.0000   0.0000   0.0000   0.0000
     0.0000   0.0000   0.0000

     the Fermi energy is     5.3893 ev

!    total energy              =    -569.21330977 Ry
     total all-electron energy =     -3412.703865 Ry
     estimated scf accuracy    <       0.00000002 Ry
     smearing contrib. (-TS)   =       0.00318348 Ry
     internal energy E=F+TS    =    -569.21649324 Ry

     The total energy is F=E-TS. E is the sum of the following terms:
     one-electron contribution =    -556.57720461 Ry
     hartree contribution      =     292.87144819 Ry
     xc contribution           =     -60.02321039 Ry
     ewald contribution        =    -123.53732156 Ry
     one-center paw contrib.   =    -121.95020488 Ry
      -> PAW hartree energy AE =     342.83809461 Ry
      -> PAW hartree energy PS =    -342.83725192 Ry
      -> PAW xc energy AE      =    -178.93980609 Ry
      -> PAW xc energy PS      =      56.98875853 Ry
      -> total E_H with PAW    =     292.87229087 Ry
      -> total E_XC with PAW   =    -181.97425795 Ry

     total magnetization       =     0.64 Bohr mag/cell
     absolute magnetization    =     0.66 Bohr mag/cell

     convergence has been achieved in  19 iterations

     Forces acting on atoms (cartesian axes, Ry/au):

     atom    1 type  1   force =     0.00000000    0.00000000    0.01913842
     atom    2 type  2   force =     0.00000000    0.00000000   -0.02419305
     atom    3 type  2   force =    -0.00000000   -0.00000000   -0.01049077
     atom    4 type  3   force =     0.00000000    0.00000000    0.01554540
     The non-local contrib.  to forces
     atom    1 type  1   force =     0.00000000    0.00000000    0.01561021
     atom    2 type  2   force =     0.00000000    0.00000000   -1.15996592
     atom    3 type  2   force =     0.00000000    0.00000000    0.88081684
     atom    4 type  3   force =     0.00000000    0.00000000    0.01051503
     The ionic contribution  to forces
     atom    1 type  1   force =    -0.00000000   -0.00000000    8.91139357
     atom    2 type  2   force =     0.00000000   -0.00000000   34.30748967
     atom    3 type  2   force =    -0.00000000    0.00000000  -28.11773841
     atom    4 type  3   force =     0.00000000   -0.00000000  -15.10114483
     The local contribution  to forces
     atom    1 type  1   force =     0.00000000   -0.00000000   -8.90769333
     atom    2 type  2   force =     0.00000001   -0.00000001  -33.18194359
     atom    3 type  2   force =    -0.00000001    0.00000001   27.23388856
     atom    4 type  3   force =    -0.00000000   -0.00000000   15.10614843
     The core correction contribution to forces
     atom    1 type  1   force =     0.00000000   -0.00000000   -0.00020525
     atom    2 type  2   force =    -0.00000000    0.00000000    0.01023672
     atom    3 type  2   force =     0.00000000   -0.00000000   -0.00748283
     atom    4 type  3   force =     0.00000000   -0.00000000   -0.00003301
     The Hubbard contrib.    to forces
     atom    1 type  1   force =     0.00000000    0.00000000    0.00000000
     atom    2 type  2   force =     0.00000000    0.00000000    0.00000000
     atom    3 type  2   force =     0.00000000    0.00000000    0.00000000
     atom    4 type  3   force =     0.00000000    0.00000000    0.00000000
     The SCF correction term to forces
     atom    1 type  1   force =    -0.00000000   -0.00000000    0.00002383
     atom    2 type  2   force =    -0.00000000    0.00000000   -0.00001931
     atom    3 type  2   force =     0.00000000   -0.00000000    0.00001568
     atom    4 type  3   force =     0.00000000   -0.00000000    0.00005040

     Total force =     0.036101     Total SCF correction =     0.000061

     Writing all to output data dir ./out/pw.save/ :
     XML data file, charge density, pseudopotentials, collected wavefunctions
 
     init_run     :     13.35s CPU      3.28s WALL (       1 calls)
     electrons    :    100.11s CPU     26.67s WALL (       1 calls)
     forces       :      0.67s CPU      0.56s WALL (       1 calls)

     Called by init_run:
     wfcinit      :      0.27s CPU      0.32s WALL (       1 calls)
     wfcinit:atom :      0.04s CPU      0.04s WALL (      50 calls)
     wfcinit:wfcr :      0.16s CPU      0.20s WALL (      50 calls)
     potinit      :     12.54s CPU      2.40s WALL (       1 calls)
     hinit0       :      0.45s CPU      0.44s WALL (       1 calls)

     Called by electrons:
     c_bands      :     13.15s CPU     13.04s WALL (      19 calls)
     sum_band     :      2.21s CPU      2.13s WALL (      19 calls)
     v_of_rho     :      0.34s CPU      0.17s WALL (      20 calls)
     v_h          :      0.23s CPU      0.03s WALL (      20 calls)
     v_xc         :      0.11s CPU      0.14s WALL (      21 calls)
     newd         :      0.46s CPU      0.36s WALL (      20 calls)
                                        0.36s GPU  (      20 calls)
     PAW_pot      :     87.29s CPU     10.93s WALL (      20 calls)
     mix_rho      :      0.61s CPU      0.57s WALL (      19 calls)

     Called by c_bands:
     init_us_2    :      0.84s CPU      0.78s WALL (    2000 calls)
     cegterg      :     11.52s CPU     11.50s WALL (     950 calls)

     Called by sum_band:
     sum_band:wei :      0.02s CPU      0.02s WALL (      19 calls)
                                        0.02s GPU  (      19 calls)
     sum_band:loo :      1.39s CPU      1.31s WALL (      19 calls)
                                        1.31s GPU  (      19 calls)
     sum_band:buf :      0.17s CPU      0.19s WALL (     950 calls)
                                        0.18s GPU  (     950 calls)
     sum_band:ini :      0.39s CPU      0.38s WALL (     950 calls)
                                        0.37s GPU  (     950 calls)
     sum_band:cal :      0.04s CPU      0.06s WALL (     950 calls)
                                        0.05s GPU  (     950 calls)
     sum_band:bec :      0.21s CPU      0.22s WALL (     950 calls)
                                        0.21s GPU  (     950 calls)
     addusdens    :      0.64s CPU      0.65s WALL (      19 calls)
                                        0.65s GPU  (      19 calls)
     addusd:skk   :      0.00s CPU      0.00s WALL (      57 calls)
                                        0.00s GPU  (      57 calls)

     Called by *egterg:
     cdiaghg      :      3.99s CPU      4.12s WALL (    4545 calls)
                                        4.07s GPU  (    4545 calls)
     cegterg:over :      0.95s CPU      0.99s WALL (    3595 calls)
     cegterg:upda :      0.69s CPU      0.69s WALL (    3595 calls)
     cegterg:last :      0.13s CPU      0.12s WALL (    1916 calls)
     h_psi        :      4.18s CPU      4.14s WALL (    4595 calls)
                                        4.09s GPU  (    4595 calls)
     s_psi        :      0.70s CPU      0.74s WALL (    4595 calls)
     g_psi        :      0.02s CPU      0.09s WALL (    3595 calls)
                                        0.04s GPU  (    3595 calls)

     Called by h_psi:
     h_psi:calbec :      0.14s CPU      0.27s WALL (    4595 calls)
                                        0.21s GPU  (    4595 calls)
     vloc_psi     :      2.91s CPU      2.80s WALL (    4595 calls)
                                        2.74s GPU  (    4595 calls)
     add_vuspsi   :      0.63s CPU      0.75s WALL (    4595 calls)
                                        0.70s GPU  (    4595 calls)

     General routines
     calbec       :      0.16s CPU      0.18s WALL (    5745 calls)
     fft          :      3.75s CPU      0.98s WALL (     513 calls)
                                        0.02s GPU  (     473 calls)
     ffts         :      4.58s CPU      0.83s WALL (     732 calls)
                                        0.02s GPU  (     692 calls)
     fftw         :      0.27s CPU      0.94s WALL (   14992 calls)
                                        0.78s GPU  (   14992 calls)
     interpolate  :      8.47s CPU      1.78s WALL (      40 calls)
 
     Parallel routines

     PAW routines
     PAW_pot      :     87.29s CPU     10.93s WALL (      20 calls)
     PAW_symme    :      0.02s CPU      0.00s WALL (      39 calls)
 
     PWSCF        :   1m55.00s CPU     31.04s WALL

 
   This run was terminated on:   3:51:39  12Jul2026            

=------------------------------------------------------------------------------=
   JOB DONE.
=------------------------------------------------------------------------------=
Warning: ieee_divide_by_zero is signaling
Warning: ieee_inexact is signaling
FORTRAN STOP
