
     Program PWSCF v.7.3.1 starts on 12Jul2026 at  5:36:32 

     This program is part of the open-source Quantum ESPRESSO suite
     for quantum simulation of materials; please cite
         "P. Giannozzi et al., J. Phys.:Condens. Matter 21 395502 (2009);
         "P. Giannozzi et al., J. Phys.:Condens. Matter 29 465901 (2017);
         "P. Giannozzi et al., J. Chem. Phys. 152 154105 (2020);
          URL http://www.quantum-espresso.org", 
     in publications or presentations arising from this work. More details at
     http://www.quantum-espresso.org/quote

     Parallel version (MPI & OpenMP), running on      14 processor cores
     Number of MPI processes:                 1
     Threads/MPI process:                    14

     MPI processes distributed on     1 nodes
     1345956 MiB available memory on the printing compute node when the environment starts
 
     Reading input from pw.in

     Current dimensions of program PWSCF are:
     Max number of different atomic species (ntypx) = 10
     Max number of k-points (npk) =  40000
     Max angular momentum in pseudopotentials (lmaxx) =  4
     file Co.pbe-spn-kjpaw_psl.0.3.1.UPF: wavefunction(s)  3P 3D renormalized
     file O.pbe-n-kjpaw_psl.1.0.0.UPF: wavefunction(s)  2S 2P renormalized
     file K.pbe-spn-kjpaw_psl.1.0.0.UPF: wavefunction(s)  3S renormalized
 
     Subspace diagonalization in iterative solution of the eigenvalue problem:
     a serial algorithm will be used

 
     G-vector sticks info
     --------------------
     sticks:   dense  smooth     PW     G-vecs:    dense   smooth      PW
     Sum        1003     499    151                60133    21263    3497
 
     Using Slab Decomposition
 


     bravais-lattice index     =            4
     lattice parameter (alat)  =       5.4802  a.u.
     unit-cell volume          =     339.1348 (a.u.)^3
     number of atoms/cell      =            4
     number of atomic types    =            3
     number of electrons       =        38.00
     number of Kohn-Sham states=           27
     kinetic-energy cutoff     =      60.0000  Ry
     charge density cutoff     =     480.0000  Ry
     scf convergence threshold =      1.0E-07
     mixing beta               =       0.3000
     number of iterations used =            8  local-TF  mixing
     Exchange-correlation= SLA  PW   PBX  PBC
                           (   1   4   3   4   0   0   0)

     GPU acceleration is ACTIVE.  1 visible GPUs per MPI rank
     GPU-aware MPI enabled


     GPU used by master process:

        Device Number: 0
        Device name: NVIDIA A100-SXM4-80GB
        Compute capability : 80
        Ratio of single to double precision performance  : 2
        Memory Clock Rate (KHz): 1593000
        Memory Bus Width (bits): 5120
        Peak Memory Bandwidth (GB/s): ******

     celldm(1)=   5.480206  celldm(2)=   0.000000  celldm(3)=   2.379310
     celldm(4)=   0.000000  celldm(5)=   0.000000  celldm(6)=   0.000000

     crystal axes: (cart. coord. in units of alat)
               a(1) = (   1.000000   0.000000   0.000000 )  
               a(2) = (  -0.500000   0.866025   0.000000 )  
               a(3) = (   0.000000   0.000000   2.379310 )  

     reciprocal axes: (cart. coord. in units 2 pi/alat)
               b(1) = (  1.000000  0.577350 -0.000000 )  
               b(2) = (  0.000000  1.154701  0.000000 )  
               b(3) = (  0.000000 -0.000000  0.420290 )  


     PseudoPot. # 1 for Co read from file:
     ../../pseudo/Co.pbe-spn-kjpaw_psl.0.3.1.UPF
     MD5 check sum: 3c0a43779828c046024e4f3be63f8e67
     Pseudo is Projector augmented-wave + core cor, Zval = 17.0
     Generated using &quot;atomic&quot; code by A. Dal Corso  v.6.2.2
     Shape of augmentation charge: PSQ
     Using radial grid of 1193 points,  6 beta functions with: 
                l(1) =   0
                l(2) =   0
                l(3) =   1
                l(4) =   1
                l(5) =   2
                l(6) =   2
     Q(r) pseudized with 0 coefficients 


     PseudoPot. # 2 for O  read from file:
     ../../pseudo/O.pbe-n-kjpaw_psl.1.0.0.UPF
     MD5 check sum: e99d9cef9b487d1ca56f5b95ecd0fd7a
     Pseudo is Projector augmented-wave + core cor, Zval =  6.0
     Generated using &quot;atomic&quot; code by A. Dal Corso  v.6.3
     Shape of augmentation charge: PSQ
     Using radial grid of 1095 points,  4 beta functions with: 
                l(1) =   0
                l(2) =   0
                l(3) =   1
                l(4) =   1
     Q(r) pseudized with 0 coefficients 


     PseudoPot. # 3 for K  read from file:
     ../../pseudo/K.pbe-spn-kjpaw_psl.1.0.0.UPF
     MD5 check sum: 34cc42130a09071ebe376fd42eb21491
     Pseudo is Projector augmented-wave + core cor, Zval =  9.0
     Generated using &quot;atomic&quot; code by A. Dal Corso  v.6.2.2
     Shape of augmentation charge: PSQ
     Using radial grid of 1165 points,  6 beta functions with: 
                l(1) =   0
                l(2) =   0
                l(3) =   1
                l(4) =   1
                l(5) =   2
                l(6) =   2
     Q(r) pseudized with 0 coefficients 


     atomic species   valence    mass     pseudopotential
     Co               17.00    58.93300     Co( 1.00)
     O                 6.00    15.99900     O ( 1.00)
     K                 9.00    39.09830     K ( 1.00)

     Starting magnetic structure 
     atomic species   magnetization
     Co              0.300
     O               0.000
     K               0.000

      6 Sym. Ops. (no inversion) found


                                    s                        frac. trans.

      isym =  1     identity                                     

 cryst.   s( 1) = (     1          0          0      )
                  (     0          1          0      )
                  (     0          0          1      )

 cart.    s( 1) = (  1.0000000  0.0000000  0.0000000 )
                  (  0.0000000  1.0000000  0.0000000 )
                  (  0.0000000  0.0000000  1.0000000 )


      isym =  2     120 deg rotation - cryst. axis [0,0,1]       

 cryst.   s( 2) = (     0          1          0      )
                  (    -1         -1          0      )
                  (     0          0          1      )

 cart.    s( 2) = ( -0.5000000 -0.8660254  0.0000000 )
                  (  0.8660254 -0.5000000  0.0000000 )
                  (  0.0000000  0.0000000  1.0000000 )


      isym =  3     120 deg rotation - cryst. axis [0,0,-1]      

 cryst.   s( 3) = (    -1         -1          0      )
                  (     1          0          0      )
                  (     0          0          1      )

 cart.    s( 3) = ( -0.5000000  0.8660254  0.0000000 )
                  ( -0.8660254 -0.5000000  0.0000000 )
                  (  0.0000000  0.0000000  1.0000000 )


      isym =  4     inv. 180 deg rotation - cart. axis [1,0,0]   

 cryst.   s( 4) = (    -1          0          0      )
                  (     1          1          0      )
                  (     0          0          1      )

 cart.    s( 4) = ( -1.0000000  0.0000000  0.0000000 )
                  (  0.0000000  1.0000000  0.0000000 )
                  (  0.0000000  0.0000000  1.0000000 )


      isym =  5     inv. 180 deg rotation - cryst. axis [0,1,0]  

 cryst.   s( 5) = (     1          1          0      )
                  (     0         -1          0      )
                  (     0          0          1      )

 cart.    s( 5) = (  0.5000000  0.8660254  0.0000000 )
                  (  0.8660254 -0.5000000  0.0000000 )
                  (  0.0000000  0.0000000  1.0000000 )


      isym =  6     inv. 180 deg rotation - cryst. axis [1,1,0]  

 cryst.   s( 6) = (     0         -1          0      )
                  (    -1          0          0      )
                  (     0          0          1      )

 cart.    s( 6) = (  0.5000000 -0.8660254  0.0000000 )
                  ( -0.8660254 -0.5000000  0.0000000 )
                  (  0.0000000  0.0000000  1.0000000 )


     point group C_3v (3m)  
     there are  3 classes
     the character table:

       E     2C3   3s_v 
A_1    1.00  1.00  1.00
A_2    1.00  1.00 -1.00
E      2.00 -1.00  0.00

     the symmetry operations in each class and the name of the first element:

     E        1
          identity                                               
     2C3      2    3
          120 deg rotation - cryst. axis [0,0,1]                 
     3s_v     4    5    6
          inv. 180 deg rotation - cart. axis [1,0,0]             

   Cartesian axes

     site n.     atom                  positions (alat units)
         1        Co     tau(   1) = (   0.0000000   0.0000000   0.0000000  )
         2        O      tau(   2) = (  -0.0000000   0.5773503   0.3310345  )
         3        O      tau(   3) = (   0.5000000   0.2886751   2.0482759  )
         4        K      tau(   4) = (   0.0000000   0.0000000   1.2413793  )

   Crystallographic axes

     site n.     atom                  positions (cryst. coord.)
         1        Co     tau(   1) = (  0.0000000  0.0000000  0.0000000  )
         2        O      tau(   2) = (  0.3333333  0.6666667  0.1391304  )
         3        O      tau(   3) = (  0.6666667  0.3333333  0.8608696  )
         4        K      tau(   4) = (  0.0000000  0.0000000  0.5217391  )

     number of k points=    25  Marzari-Vanderbilt smearing, width (Ry)=  0.0200
                       cart. coord. in units 2pi/alat
        k(    1) = (   0.0000000   0.0000000   0.0000000), wk =   0.0052083
        k(    2) = (   0.0000000   0.0000000   0.1400966), wk =   0.0104167
        k(    3) = (   0.0000000   0.1443376   0.0000000), wk =   0.0312500
        k(    4) = (   0.0000000   0.1443376   0.1400966), wk =   0.0312500
        k(    5) = (   0.0000000   0.2886751   0.0000000), wk =   0.0312500
        k(    6) = (   0.0000000   0.2886751   0.1400966), wk =   0.0312500
        k(    7) = (   0.0000000   0.4330127   0.0000000), wk =   0.0312500
        k(    8) = (   0.0000000   0.4330127   0.1400966), wk =   0.0312500
        k(    9) = (   0.0000000  -0.5773503   0.0000000), wk =   0.0156250
        k(   10) = (   0.0000000  -0.5773503   0.1400966), wk =   0.0312500
        k(   11) = (   0.1250000   0.2165064   0.0000000), wk =   0.0312500
        k(   12) = (   0.1250000   0.2165064   0.1400966), wk =   0.0625000
        k(   13) = (   0.1250000   0.3608439   0.0000000), wk =   0.0625000
        k(   14) = (   0.1250000   0.3608439   0.1400966), wk =   0.0625000
        k(   15) = (   0.1250000   0.5051815   0.0000000), wk =   0.0625000
        k(   16) = (   0.1250000   0.5051815   0.1400966), wk =   0.0625000
        k(   17) = (   0.2500000   0.4330127   0.0000000), wk =   0.0312500
        k(   18) = (   0.2500000   0.4330127   0.1400966), wk =   0.0625000
        k(   19) = (   0.2500000   0.5773503   0.0000000), wk =   0.0312500
        k(   20) = (   0.2500000   0.5773503   0.1400966), wk =   0.0625000
        k(   21) = (   0.0000000  -0.1443376   0.1400966), wk =   0.0312500
        k(   22) = (   0.0000000  -0.2886751   0.1400966), wk =   0.0312500
        k(   23) = (   0.0000000  -0.4330127   0.1400966), wk =   0.0312500
        k(   24) = (  -0.1250000  -0.3608439   0.1400966), wk =   0.0625000
        k(   25) = (  -0.1250000  -0.5051815   0.1400966), wk =   0.0625000

                       cryst. coord.
        k(    1) = (   0.0000000   0.0000000   0.0000000), wk =   0.0052083
        k(    2) = (   0.0000000   0.0000000   0.3333333), wk =   0.0104167
        k(    3) = (   0.0000000   0.1250000   0.0000000), wk =   0.0312500
        k(    4) = (   0.0000000   0.1250000   0.3333333), wk =   0.0312500
        k(    5) = (   0.0000000   0.2500000   0.0000000), wk =   0.0312500
        k(    6) = (   0.0000000   0.2500000   0.3333333), wk =   0.0312500
        k(    7) = (   0.0000000   0.3750000   0.0000000), wk =   0.0312500
        k(    8) = (   0.0000000   0.3750000   0.3333333), wk =   0.0312500
        k(    9) = (   0.0000000  -0.5000000   0.0000000), wk =   0.0156250
        k(   10) = (   0.0000000  -0.5000000   0.3333333), wk =   0.0312500
        k(   11) = (   0.1250000   0.1250000   0.0000000), wk =   0.0312500
        k(   12) = (   0.1250000   0.1250000   0.3333333), wk =   0.0625000
        k(   13) = (   0.1250000   0.2500000   0.0000000), wk =   0.0625000
        k(   14) = (   0.1250000   0.2500000   0.3333333), wk =   0.0625000
        k(   15) = (   0.1250000   0.3750000   0.0000000), wk =   0.0625000
        k(   16) = (   0.1250000   0.3750000   0.3333333), wk =   0.0625000
        k(   17) = (   0.2500000   0.2500000   0.0000000), wk =   0.0312500
        k(   18) = (   0.2500000   0.2500000   0.3333333), wk =   0.0625000
        k(   19) = (   0.2500000   0.3750000   0.0000000), wk =   0.0312500
        k(   20) = (   0.2500000   0.3750000   0.3333333), wk =   0.0625000
        k(   21) = (   0.0000000  -0.1250000   0.3333333), wk =   0.0312500
        k(   22) = (   0.0000000  -0.2500000   0.3333333), wk =   0.0312500
        k(   23) = (   0.0000000  -0.3750000   0.3333333), wk =   0.0312500
        k(   24) = (  -0.1250000  -0.2500000   0.3333333), wk =   0.0625000
        k(   25) = (  -0.1250000  -0.3750000   0.3333333), wk =   0.0625000

     Dense  grid:    60133 G-vectors     FFT dimensions: (  40,  40,  96)

     Smooth grid:    21263 G-vectors     FFT dimensions: (  27,  27,  72)

     Dynamical RAM for                 wfc:       1.10 MB

     Dynamical RAM for     wfc (w. buffer):      55.93 MB

     Dynamical RAM for           str. fact:       2.75 MB

     Dynamical RAM for           local pot:       0.00 MB

     Dynamical RAM for          nlocal pot:       2.11 MB

     Dynamical RAM for                qrad:       5.27 MB

     Dynamical RAM for          rho,v,vnew:      12.54 MB

     Dynamical RAM for               rhoin:       4.18 MB

     Dynamical RAM for            rho*nmix:      29.36 MB

     Dynamical RAM for           G-vectors:       3.60 MB

     Dynamical RAM for          h,s,v(r/c):       0.13 MB

     Dynamical RAM for          <psi|beta>:       0.02 MB

     Dynamical RAM for                 psi:       2.19 MB

     Dynamical RAM for                hpsi:       2.19 MB

     Dynamical RAM for                spsi:       2.19 MB

     Dynamical RAM for      wfcinit/wfcrot:       2.21 MB

     Dynamical RAM for           addusdens:     173.42 MB

     Dynamical RAM for          addusforce:     175.27 MB

     Estimated static dynamical RAM per process >      97.09 MB

     Estimated max dynamical RAM per process >     301.72 MB

     Check: negative core charge=   -0.000008
     Generating pointlists ...
     new r_m :   0.2745 (alat units)  1.5045 (a.u.) for type    1
     new r_m :   0.2745 (alat units)  1.5045 (a.u.) for type    2
     new r_m :   0.4093 (alat units)  2.2429 (a.u.) for type    3

     Initial potential from superposition of free atoms

     starting charge      37.9809, renormalised to      38.0000
     Starting wfcs are   26 randomized atomic wfcs +    1 random wfcs
     Checking if some PAW data can be deallocated... 

     total cpu time spent up to now is        4.2 secs

     Self-consistent Calculation
[tb_dev] Currently allocated     6.58E-01 Mbytes, locked:    0 /   6
[tb_pin] Currently allocated     0.00E+00 Mbytes, locked:    0 /   0

     iteration #  1     ecut=    60.00 Ry     beta= 0.30
     Davidson diagonalization with overlap

---- Real-time Memory Report at c_bands before calling an iterative solver
           674 MiB given to the printing process from OS
             0 MiB allocation reported by mallinfo(arena+hblkhd)
       1361816 MiB available memory on the node where the printing process lives
     GPU memory used/free/total (MiB): 1002 / 80148 / 81151
------------------
     ethr =  1.00E-02,  avg # of iterations =  8.9

     total cpu time spent up to now is        6.4 secs

     total energy              =    -572.84982748 Ry
     estimated scf accuracy    <       1.51738545 Ry

     total magnetization       =     4.00 Bohr mag/cell
     absolute magnetization    =     4.00 Bohr mag/cell
[tb_dev] Currently allocated     3.05E-05 Mbytes, locked:    0 /   2
[tb_pin] Currently allocated     0.00E+00 Mbytes, locked:    0 /   0

     iteration #  2     ecut=    60.00 Ry     beta= 0.30
     Davidson diagonalization with overlap

---- Real-time Memory Report at c_bands before calling an iterative solver
           717 MiB given to the printing process from OS
             0 MiB allocation reported by mallinfo(arena+hblkhd)
       1359942 MiB available memory on the node where the printing process lives
     GPU memory used/free/total (MiB): 1018 / 80132 / 81151
------------------
     ethr =  3.99E-03,  avg # of iterations =  2.0

     total cpu time spent up to now is        7.8 secs

     total energy              =    -572.79699572 Ry
     estimated scf accuracy    <       0.53511986 Ry

     total magnetization       =     4.05 Bohr mag/cell
     absolute magnetization    =     4.05 Bohr mag/cell
[tb_dev] Currently allocated     3.05E-05 Mbytes, locked:    0 /   2
[tb_pin] Currently allocated     0.00E+00 Mbytes, locked:    0 /   0

     iteration #  3     ecut=    60.00 Ry     beta= 0.30
     Davidson diagonalization with overlap

---- Real-time Memory Report at c_bands before calling an iterative solver
           718 MiB given to the printing process from OS
             0 MiB allocation reported by mallinfo(arena+hblkhd)
       1358605 MiB available memory on the node where the printing process lives
     GPU memory used/free/total (MiB): 1018 / 80132 / 81151
------------------
     ethr =  1.41E-03,  avg # of iterations =  2.8

     total cpu time spent up to now is        9.3 secs

     total energy              =    -573.04425759 Ry
     estimated scf accuracy    <       1.07929772 Ry

     total magnetization       =     1.53 Bohr mag/cell
     absolute magnetization    =     1.62 Bohr mag/cell
[tb_dev] Currently allocated     3.05E-05 Mbytes, locked:    0 /   2
[tb_pin] Currently allocated     0.00E+00 Mbytes, locked:    0 /   0

     iteration #  4     ecut=    60.00 Ry     beta= 0.30
     Davidson diagonalization with overlap

---- Real-time Memory Report at c_bands before calling an iterative solver
           719 MiB given to the printing process from OS
             0 MiB allocation reported by mallinfo(arena+hblkhd)
       1357362 MiB available memory on the node where the printing process lives
     GPU memory used/free/total (MiB): 1018 / 80132 / 81151
------------------
     ethr =  1.41E-03,  avg # of iterations =  1.6

     total cpu time spent up to now is       10.7 secs

     total energy              =    -573.08710212 Ry
     estimated scf accuracy    <       1.79364230 Ry

     total magnetization       =     1.13 Bohr mag/cell
     absolute magnetization    =     1.32 Bohr mag/cell
[tb_dev] Currently allocated     3.05E-05 Mbytes, locked:    0 /   2
[tb_pin] Currently allocated     0.00E+00 Mbytes, locked:    0 /   0

     iteration #  5     ecut=    60.00 Ry     beta= 0.30
     Davidson diagonalization with overlap

---- Real-time Memory Report at c_bands before calling an iterative solver
           721 MiB given to the printing process from OS
             0 MiB allocation reported by mallinfo(arena+hblkhd)
       1356369 MiB available memory on the node where the printing process lives
     GPU memory used/free/total (MiB): 1018 / 80132 / 81151
------------------
     ethr =  1.41E-03,  avg # of iterations =  1.2

     total cpu time spent up to now is       12.0 secs

     total energy              =    -572.95208552 Ry
     estimated scf accuracy    <       1.69956020 Ry

     total magnetization       =     0.69 Bohr mag/cell
     absolute magnetization    =     1.14 Bohr mag/cell
[tb_dev] Currently allocated     3.05E-05 Mbytes, locked:    0 /   2
[tb_pin] Currently allocated     0.00E+00 Mbytes, locked:    0 /   0

     iteration #  6     ecut=    60.00 Ry     beta= 0.30
     Davidson diagonalization with overlap

---- Real-time Memory Report at c_bands before calling an iterative solver
           722 MiB given to the printing process from OS
             0 MiB allocation reported by mallinfo(arena+hblkhd)
       1355476 MiB available memory on the node where the printing process lives
     GPU memory used/free/total (MiB): 1018 / 80132 / 81151
------------------
     ethr =  1.41E-03,  avg # of iterations =  1.9

     total cpu time spent up to now is       13.4 secs

     total energy              =    -573.01135959 Ry
     estimated scf accuracy    <       0.37149386 Ry

     total magnetization       =     0.22 Bohr mag/cell
     absolute magnetization    =     0.76 Bohr mag/cell
[tb_dev] Currently allocated     3.05E-05 Mbytes, locked:    0 /   2
[tb_pin] Currently allocated     0.00E+00 Mbytes, locked:    0 /   0

     iteration #  7     ecut=    60.00 Ry     beta= 0.30
     Davidson diagonalization with overlap

---- Real-time Memory Report at c_bands before calling an iterative solver
           724 MiB given to the printing process from OS
             0 MiB allocation reported by mallinfo(arena+hblkhd)
       1354000 MiB available memory on the node where the printing process lives
     GPU memory used/free/total (MiB): 1018 / 80132 / 81151
------------------
     ethr =  9.78E-04,  avg # of iterations =  1.7

     total cpu time spent up to now is       14.8 secs

     total energy              =    -573.02814134 Ry
     estimated scf accuracy    <       0.17488961 Ry

     total magnetization       =     0.04 Bohr mag/cell
     absolute magnetization    =     0.52 Bohr mag/cell
[tb_dev] Currently allocated     3.05E-05 Mbytes, locked:    0 /   2
[tb_pin] Currently allocated     0.00E+00 Mbytes, locked:    0 /   0

     iteration #  8     ecut=    60.00 Ry     beta= 0.30
     Davidson diagonalization with overlap

---- Real-time Memory Report at c_bands before calling an iterative solver
           726 MiB given to the printing process from OS
             0 MiB allocation reported by mallinfo(arena+hblkhd)
       1353119 MiB available memory on the node where the printing process lives
     GPU memory used/free/total (MiB): 1018 / 80132 / 81151
------------------
     ethr =  4.60E-04,  avg # of iterations =  3.9

     total cpu time spent up to now is       16.4 secs

     total energy              =    -572.99256447 Ry
     estimated scf accuracy    <       0.09606873 Ry

     total magnetization       =     0.00 Bohr mag/cell
     absolute magnetization    =     0.15 Bohr mag/cell
[tb_dev] Currently allocated     3.05E-05 Mbytes, locked:    0 /   2
[tb_pin] Currently allocated     0.00E+00 Mbytes, locked:    0 /   0

     iteration #  9     ecut=    60.00 Ry     beta= 0.30
     Davidson diagonalization with overlap

---- Real-time Memory Report at c_bands before calling an iterative solver
           728 MiB given to the printing process from OS
             0 MiB allocation reported by mallinfo(arena+hblkhd)
       1350488 MiB available memory on the node where the printing process lives
     GPU memory used/free/total (MiB): 1018 / 80132 / 81151
------------------
     ethr =  2.53E-04,  avg # of iterations =  5.0

     total cpu time spent up to now is       18.2 secs

     total energy              =    -573.02191854 Ry
     estimated scf accuracy    <       0.05381115 Ry

     total magnetization       =    -0.12 Bohr mag/cell
     absolute magnetization    =     0.20 Bohr mag/cell
[tb_dev] Currently allocated     3.05E-05 Mbytes, locked:    0 /   2
[tb_pin] Currently allocated     0.00E+00 Mbytes, locked:    0 /   0

     iteration # 10     ecut=    60.00 Ry     beta= 0.30
     Davidson diagonalization with overlap

---- Real-time Memory Report at c_bands before calling an iterative solver
           729 MiB given to the printing process from OS
             0 MiB allocation reported by mallinfo(arena+hblkhd)
       1347431 MiB available memory on the node where the printing process lives
     GPU memory used/free/total (MiB): 1018 / 80132 / 81151
------------------
     c_bands:  2 eigenvalues not converged
     ethr =  1.42E-04,  avg # of iterations =  2.4
     Minimization algorithm failed to find Fermi energy: reverting to bisection
     Possible cause: smearing is larger than the electronic band-gap.

     total cpu time spent up to now is       19.7 secs

     total energy              =    -573.02743526 Ry
     estimated scf accuracy    <       0.00789308 Ry

     total magnetization       =    -0.09 Bohr mag/cell
     absolute magnetization    =     0.09 Bohr mag/cell
[tb_dev] Currently allocated     3.05E-05 Mbytes, locked:    0 /   2
[tb_pin] Currently allocated     0.00E+00 Mbytes, locked:    0 /   0

     iteration # 11     ecut=    60.00 Ry     beta= 0.30
     Davidson diagonalization with overlap

---- Real-time Memory Report at c_bands before calling an iterative solver
           729 MiB given to the printing process from OS
             0 MiB allocation reported by mallinfo(arena+hblkhd)
       1345057 MiB available memory on the node where the printing process lives
     GPU memory used/free/total (MiB): 1018 / 80132 / 81151
------------------
     c_bands:  1 eigenvalues not converged
     c_bands:  1 eigenvalues not converged
     ethr =  2.08E-05,  avg # of iterations = 10.2
     Minimization algorithm failed to find Fermi energy: reverting to bisection
     Possible cause: smearing is larger than the electronic band-gap.

     total cpu time spent up to now is       22.1 secs

     total energy              =    -573.02810983 Ry
     estimated scf accuracy    <       0.00526563 Ry

     total magnetization       =    -0.13 Bohr mag/cell
     absolute magnetization    =     0.13 Bohr mag/cell
[tb_dev] Currently allocated     3.05E-05 Mbytes, locked:    0 /   2
[tb_pin] Currently allocated     0.00E+00 Mbytes, locked:    0 /   0

     iteration # 12     ecut=    60.00 Ry     beta= 0.30
     Davidson diagonalization with overlap

---- Real-time Memory Report at c_bands before calling an iterative solver
           729 MiB given to the printing process from OS
             0 MiB allocation reported by mallinfo(arena+hblkhd)
       1361392 MiB available memory on the node where the printing process lives
     GPU memory used/free/total (MiB): 1018 / 80132 / 81151
------------------
     ethr =  1.39E-05,  avg # of iterations =  1.9
     Minimization algorithm failed to find Fermi energy: reverting to bisection
     Possible cause: smearing is larger than the electronic band-gap.

     total cpu time spent up to now is       23.5 secs

     total energy              =    -573.02790958 Ry
     estimated scf accuracy    <       0.00446683 Ry

     total magnetization       =    -0.14 Bohr mag/cell
     absolute magnetization    =     0.15 Bohr mag/cell
[tb_dev] Currently allocated     3.05E-05 Mbytes, locked:    0 /   2
[tb_pin] Currently allocated     0.00E+00 Mbytes, locked:    0 /   0

     iteration # 13     ecut=    60.00 Ry     beta= 0.30
     Davidson diagonalization with overlap

---- Real-time Memory Report at c_bands before calling an iterative solver
           729 MiB given to the printing process from OS
             0 MiB allocation reported by mallinfo(arena+hblkhd)
       1360126 MiB available memory on the node where the printing process lives
     GPU memory used/free/total (MiB): 1018 / 80132 / 81151
------------------
     ethr =  1.18E-05,  avg # of iterations =  1.3
     Minimization algorithm failed to find Fermi energy: reverting to bisection
     Possible cause: smearing is larger than the electronic band-gap.

     total cpu time spent up to now is       24.8 secs

     total energy              =    -573.02792221 Ry
     estimated scf accuracy    <       0.00163702 Ry

     total magnetization       =    -0.18 Bohr mag/cell
     absolute magnetization    =     0.18 Bohr mag/cell
[tb_dev] Currently allocated     3.05E-05 Mbytes, locked:    0 /   2
[tb_pin] Currently allocated     0.00E+00 Mbytes, locked:    0 /   0

     iteration # 14     ecut=    60.00 Ry     beta= 0.30
     Davidson diagonalization with overlap

---- Real-time Memory Report at c_bands before calling an iterative solver
           729 MiB given to the printing process from OS
             0 MiB allocation reported by mallinfo(arena+hblkhd)
       1359210 MiB available memory on the node where the printing process lives
     GPU memory used/free/total (MiB): 1018 / 80132 / 81151
------------------
     c_bands:  1 eigenvalues not converged
     ethr =  4.31E-06,  avg # of iterations =  2.8
     Minimization algorithm failed to find Fermi energy: reverting to bisection
     Possible cause: smearing is larger than the electronic band-gap.

     total cpu time spent up to now is       26.3 secs

     total energy              =    -573.02796303 Ry
     estimated scf accuracy    <       0.00063568 Ry

     total magnetization       =    -0.19 Bohr mag/cell
     absolute magnetization    =     0.20 Bohr mag/cell
[tb_dev] Currently allocated     3.05E-05 Mbytes, locked:    0 /   2
[tb_pin] Currently allocated     0.00E+00 Mbytes, locked:    0 /   0

     iteration # 15     ecut=    60.00 Ry     beta= 0.30
     Davidson diagonalization with overlap

---- Real-time Memory Report at c_bands before calling an iterative solver
           729 MiB given to the printing process from OS
             0 MiB allocation reported by mallinfo(arena+hblkhd)
       1357755 MiB available memory on the node where the printing process lives
     GPU memory used/free/total (MiB): 1018 / 80132 / 81151
------------------
     c_bands:  1 eigenvalues not converged
     c_bands:  1 eigenvalues not converged
     c_bands:  1 eigenvalues not converged
     c_bands:  1 eigenvalues not converged
     ethr =  1.67E-06,  avg # of iterations =  7.5

     total cpu time spent up to now is       28.3 secs

     total energy              =    -573.02798010 Ry
     estimated scf accuracy    <       0.00022325 Ry

     total magnetization       =    -0.19 Bohr mag/cell
     absolute magnetization    =     0.20 Bohr mag/cell
[tb_dev] Currently allocated     3.05E-05 Mbytes, locked:    0 /   2
[tb_pin] Currently allocated     0.00E+00 Mbytes, locked:    0 /   0

     iteration # 16     ecut=    60.00 Ry     beta= 0.30
     Davidson diagonalization with overlap

---- Real-time Memory Report at c_bands before calling an iterative solver
           729 MiB given to the printing process from OS
             0 MiB allocation reported by mallinfo(arena+hblkhd)
       1356149 MiB available memory on the node where the printing process lives
     GPU memory used/free/total (MiB): 1018 / 80132 / 81151
------------------
     c_bands:  1 eigenvalues not converged
     ethr =  5.87E-07,  avg # of iterations =  3.8

     total cpu time spent up to now is       29.9 secs

     total energy              =    -573.02800363 Ry
     estimated scf accuracy    <       0.00005344 Ry

     total magnetization       =    -0.20 Bohr mag/cell
     absolute magnetization    =     0.21 Bohr mag/cell
[tb_dev] Currently allocated     3.05E-05 Mbytes, locked:    0 /   2
[tb_pin] Currently allocated     0.00E+00 Mbytes, locked:    0 /   0

     iteration # 17     ecut=    60.00 Ry     beta= 0.30
     Davidson diagonalization with overlap

---- Real-time Memory Report at c_bands before calling an iterative solver
           729 MiB given to the printing process from OS
             0 MiB allocation reported by mallinfo(arena+hblkhd)
       1355473 MiB available memory on the node where the printing process lives
     GPU memory used/free/total (MiB): 1018 / 80132 / 81151
------------------
     c_bands:  1 eigenvalues not converged
     c_bands:  1 eigenvalues not converged
     ethr =  1.41E-07,  avg # of iterations =  6.2

     total cpu time spent up to now is       31.8 secs

     total energy              =    -573.02802435 Ry
     estimated scf accuracy    <       0.00001851 Ry

     total magnetization       =    -0.20 Bohr mag/cell
     absolute magnetization    =     0.21 Bohr mag/cell
[tb_dev] Currently allocated     3.05E-05 Mbytes, locked:    0 /   2
[tb_pin] Currently allocated     0.00E+00 Mbytes, locked:    0 /   0

     iteration # 18     ecut=    60.00 Ry     beta= 0.30
     Davidson diagonalization with overlap

---- Real-time Memory Report at c_bands before calling an iterative solver
           729 MiB given to the printing process from OS
             0 MiB allocation reported by mallinfo(arena+hblkhd)
       1353332 MiB available memory on the node where the printing process lives
     GPU memory used/free/total (MiB): 1018 / 80132 / 81151
------------------
     ethr =  4.87E-08,  avg # of iterations =  3.0

     total cpu time spent up to now is       33.4 secs

     total energy              =    -573.02802929 Ry
     estimated scf accuracy    <       0.00000181 Ry

     total magnetization       =    -0.20 Bohr mag/cell
     absolute magnetization    =     0.21 Bohr mag/cell
[tb_dev] Currently allocated     3.05E-05 Mbytes, locked:    0 /   2
[tb_pin] Currently allocated     0.00E+00 Mbytes, locked:    0 /   0

     iteration # 19     ecut=    60.00 Ry     beta= 0.30
     Davidson diagonalization with overlap

---- Real-time Memory Report at c_bands before calling an iterative solver
           729 MiB given to the printing process from OS
             0 MiB allocation reported by mallinfo(arena+hblkhd)
       1352445 MiB available memory on the node where the printing process lives
     GPU memory used/free/total (MiB): 1018 / 80132 / 81151
------------------
     c_bands:  1 eigenvalues not converged
     ethr =  4.76E-09,  avg # of iterations =  5.6

     total cpu time spent up to now is       35.2 secs

     total energy              =    -573.02803011 Ry
     estimated scf accuracy    <       0.00000054 Ry

     total magnetization       =    -0.20 Bohr mag/cell
     absolute magnetization    =     0.21 Bohr mag/cell
[tb_dev] Currently allocated     3.05E-05 Mbytes, locked:    0 /   2
[tb_pin] Currently allocated     0.00E+00 Mbytes, locked:    0 /   0

     iteration # 20     ecut=    60.00 Ry     beta= 0.30
     Davidson diagonalization with overlap

---- Real-time Memory Report at c_bands before calling an iterative solver
           729 MiB given to the printing process from OS
             0 MiB allocation reported by mallinfo(arena+hblkhd)
       1349822 MiB available memory on the node where the printing process lives
     GPU memory used/free/total (MiB): 1018 / 80132 / 81151
------------------
     ethr =  1.42E-09,  avg # of iterations =  4.2

     total cpu time spent up to now is       36.9 secs

     total energy              =    -573.02803027 Ry
     estimated scf accuracy    <       0.00000028 Ry

     total magnetization       =    -0.20 Bohr mag/cell
     absolute magnetization    =     0.21 Bohr mag/cell
[tb_dev] Currently allocated     3.05E-05 Mbytes, locked:    0 /   2
[tb_pin] Currently allocated     0.00E+00 Mbytes, locked:    0 /   0

     iteration # 21     ecut=    60.00 Ry     beta= 0.30
     Davidson diagonalization with overlap

---- Real-time Memory Report at c_bands before calling an iterative solver
           729 MiB given to the printing process from OS
             0 MiB allocation reported by mallinfo(arena+hblkhd)
       1346345 MiB available memory on the node where the printing process lives
     GPU memory used/free/total (MiB): 1018 / 80132 / 81151
------------------
     ethr =  7.37E-10,  avg # of iterations =  1.9
 
     Magnetic moment per site  (integrated on atomic sphere of radius R)
     atom   1 (R=0.275)  charge= 14.1689  magn= -0.1612
     atom   2 (R=0.275)  charge=  5.2665  magn= -0.0100
     atom   3 (R=0.275)  charge=  5.2872  magn= -0.0100
     atom   4 (R=0.409)  charge=  7.7286  magn=  0.0010

     total cpu time spent up to now is       38.4 secs

     End of self-consistent calculation

 ------ SPIN UP ------------


          k = 0.0000 0.0000 0.0000 (  2625 PWs)   bands (ev):

   -84.0815 -47.3499 -47.3499 -47.2908 -23.2127  -8.9128  -7.4158  -5.9015
    -5.2380  -5.2380   4.5734   5.7092   5.7092   8.0706   8.8581   8.8581
     9.8713   9.8713  10.4037  11.4311  13.1905  13.1905  14.5919  15.2578
    15.2578  17.4892  18.8394

     occupation numbers 
     1.0000   1.0000   1.0000   1.0000   1.0000   1.0000   1.0000   1.0000
     1.0000   1.0000   1.0000   1.0000   1.0000   1.0000   1.0000   1.0000
     1.0000   1.0000   1.0389   0.0012   0.0000   0.0000   0.0000   0.0000
     0.0000   0.0000   0.0000

          k = 0.0000 0.0000 0.1401 (  2690 PWs)   bands (ev):

   -84.0816 -47.3502 -47.3502 -47.2912 -23.2126  -8.9665  -7.2350  -6.0497
    -5.2381  -5.2381   4.7895   5.7107   5.7107   7.5933   8.8511   8.8511
     9.8720   9.8720  10.7972  11.3110  13.2071  13.2071  15.0537  15.2440
    15.2441  16.6791  18.8356

     occupation numbers 
     1.0000   1.0000   1.0000   1.0000   1.0000   1.0000   1.0000   1.0000
     1.0000   1.0000   1.0000   1.0000   1.0000   1.0000   1.0000   1.0000
     1.0000   1.0000   0.8216   0.0091   0.0000   0.0000   0.0000   0.0000
     0.0000   0.0000   0.0000

          k = 0.0000 0.1443 0.0000 (  2661 PWs)   bands (ev):

   -84.0808 -47.3583 -47.3520 -47.2898 -23.1262  -8.7484  -7.3642  -5.8766
    -5.6714  -5.3282   4.8013   5.4422   5.8032   7.8497   8.3786   8.4043
    10.0921  10.2430  10.7052  11.8293  12.7422  13.0973  14.6570  15.0341
    15.8029  16.6733  19.2367

     occupation numbers 
     1.0000   1.0000   1.0000   1.0000   1.0000   1.0000   1.0000   1.0000
     1.0000   1.0000   1.0000   1.0000   1.0000   1.0000   1.0000   1.0000
     1.0007   1.0069   0.9991   0.0000   0.0000   0.0000   0.0000   0.0000
     0.0000   0.0000   0.0000

          k = 0.0000 0.1443 0.1401 (  2670 PWs)   bands (ev):

   -84.0809 -47.3583 -47.3521 -47.2898 -23.1262  -8.7975  -7.2139  -5.9966
    -5.6675  -5.3282   4.9637   5.3971   5.8054   7.8834   8.0799   8.3989
    10.0828  10.2419  10.9447  11.7548  12.7318  13.1065  14.6369  15.3406
    15.8010  16.4331  18.7989

     occupation numbers 
     1.0000   1.0000   1.0000   1.0000   1.0000   1.0000   1.0000   1.0000
     1.0000   1.0000   1.0000   1.0000   1.0000   1.0000   1.0000   1.0000
     1.0006   1.0068   0.4274   0.0000   0.0000   0.0000   0.0000   0.0000
     0.0000   0.0000   0.0000

          k = 0.0000 0.2887 0.0000 (  2664 PWs)   bands (ev):

   -84.0791 -47.3781 -47.3568 -47.2868 -22.9090  -8.3237  -7.2593  -6.6291
    -5.7979  -5.5380   5.0074   5.3403   6.0263   6.4265   7.8049   8.5061
    10.1644  10.5590  10.8657  12.0792  12.3488  12.9705  14.5990  15.1636
    16.1485  17.3121  18.2286

     occupation numbers 
     1.0000   1.0000   1.0000   1.0000   1.0000   1.0000   1.0000   1.0000
     1.0000   1.0000   1.0000   1.0000   1.0000   1.0000   1.0000   1.0000
     1.0022   1.0829   0.6421   0.0000   0.0000   0.0000   0.0000   0.0000
     0.0000   0.0000   0.0000

          k = 0.0000 0.2887 0.1401 (  2656 PWs)   bands (ev):

   -84.0791 -47.3780 -47.3568 -47.2868 -22.9090  -8.3568  -7.1961  -6.6056
    -5.8562  -5.5380   4.9418   5.4116   6.0299   6.4904   7.7985   8.4460
    10.1746  10.5565  10.9209  11.7757  12.5528  12.9817  14.5720  15.0429
    16.4465  17.3168  18.2154

     occupation numbers 
     1.0000   1.0000   1.0000   1.0000   1.0000   1.0000   1.0000   1.0000
     1.0000   1.0000   1.0000   1.0000   1.0000   1.0000   1.0000   1.0000
     1.0026   1.0827   0.4902   0.0000   0.0000   0.0000   0.0000   0.0000
     0.0000   0.0000   0.0000

          k = 0.0000 0.4330 0.0000 (  2668 PWs)   bands (ev):

   -84.0774 -47.3978 -47.3616 -47.2838 -22.6783  -7.9087  -7.4413  -7.1723
    -5.7376  -5.7013   4.3958   5.4007   6.2098   6.3608   7.4831   8.0044
    10.0624  10.5047  10.7349  11.5048  12.2452  12.9931  14.0148  16.7582
    16.9478  17.8569  19.2968

     occupation numbers 
     1.0000   1.0000   1.0000   1.0000   1.0000   1.0000   1.0000   1.0000
     1.0000   1.0000   1.0000   1.0000   1.0000   1.0000   1.0000   1.0000
     1.0004   1.0724   0.9523   0.0003   0.0000   0.0000   0.0000   0.0000
     0.0000   0.0000   0.0000

          k = 0.0000 0.4330 0.1401 (  2668 PWs)   bands (ev):

   -84.0774 -47.3978 -47.3616 -47.2839 -22.6783  -7.9093  -7.4832  -7.1189
    -5.7376  -5.7131   4.4474   5.3142   6.2166   6.4532   7.4716   7.8873
    10.1268  10.5035  10.7153  11.4458  12.4397  13.0130  13.8735  16.7948
    16.8429  17.8244  19.3006

     occupation numbers 
     1.0000   1.0000   1.0000   1.0000   1.0000   1.0000   1.0000   1.0000
     1.0000   1.0000   1.0000   1.0000   1.0000   1.0000   1.0000   1.0000
     1.0012   1.0720   0.9844   0.0009   0.0000   0.0000   0.0000   0.0000
     0.0000   0.0000   0.0000

          k = 0.0000-0.5774 0.0000 (  2658 PWs)   bands (ev):

   -84.0766 -47.4060 -47.3635 -47.2825 -22.5783  -8.0055  -7.3789  -7.2382
    -5.8176  -5.6532   3.9811   5.4780   6.2534   6.5783   7.4280   7.7146
     9.9386  10.4073  10.6417  11.1841  12.3110  13.0364  13.7235  17.2112
    17.7165  17.9703  20.5838

     occupation numbers 
     1.0000   1.0000   1.0000   1.0000   1.0000   1.0000   1.0000   1.0000
     1.0000   1.0000   1.0000   1.0000   1.0000   1.0000   1.0000   1.0000
     1.0000   1.0401   1.0627   0.0506   0.0000   0.0000   0.0000   0.0000
     0.0000   0.0000   0.0000

          k = 0.0000-0.5774 0.1401 (  2664 PWs)   bands (ev):

   -84.0767 -47.4060 -47.3635 -47.2826 -22.5782  -7.9988  -7.4044  -7.2231
    -5.8176  -5.6493   4.0384   5.3833   6.2605   6.7164   7.4159   7.5022
    10.0094  10.4075  10.6597  11.2205  12.5187  13.0580  13.5692  16.8437
    17.6761  17.9301  21.2877

     occupation numbers 
     1.0000   1.0000   1.0000   1.0000   1.0000   1.0000   1.0000   1.0000
     1.0000   1.0000   1.0000   1.0000   1.0000   1.0000   1.0000   1.0000
     1.0001   1.0401   1.0496   0.0322   0.0000   0.0000   0.0000   0.0000
     0.0000   0.0000   0.0000

          k = 0.1250 0.2165 0.0000 (  2673 PWs)   bands (ev):

   -84.0796 -47.3714 -47.3563 -47.2878 -22.9740  -8.4530  -7.2846  -6.3137
    -5.8220  -5.5358   5.1418   5.2101   5.9108   6.8951   7.7210   8.5818
    10.2473  10.5183  10.8682  12.3838  12.5225  12.9846  13.8617  15.3159
    16.0534  17.0478  18.1175

     occupation numbers 
     1.0000   1.0000   1.0000   1.0000   1.0000   1.0000   1.0000   1.0000
     1.0000   1.0000   1.0000   1.0000   1.0000   1.0000   1.0000   1.0000
     1.0073   1.0760   0.6353   0.0000   0.0000   0.0000   0.0000   0.0000
     0.0000   0.0000   0.0000

          k = 0.1250 0.2165 0.1401 (  2654 PWs)   bands (ev):

   -84.0796 -47.3713 -47.3563 -47.2876 -22.9740  -8.4905  -7.1966  -6.2973
    -5.8945  -5.5364   5.0711   5.2867   5.9122   6.9641   7.7255   8.5172
    10.2455  10.4959  10.9267  12.1433  12.7232  12.9480  13.8644  15.1786
    16.2761  17.0454  18.1330

     occupation numbers 
     1.0000   1.0000   1.0000   1.0000   1.0000   1.0000   1.0000   1.0000
     1.0000   1.0000   1.0000   1.0000   1.0000   1.0000   1.0000   1.0000
     1.0072   1.0697   0.4748   0.0000   0.0000   0.0000   0.0000   0.0000
     0.0000   0.0000   0.0000

          k = 0.1250 0.3608 0.0000 (  2648 PWs)   bands (ev):

   -84.0779 -47.3890 -47.3630 -47.2847 -22.7480  -8.0078  -7.2226  -7.0775
    -5.8581  -5.7287   4.8614   5.3282   6.0968   6.2850   7.2145   8.2880
    10.2682  10.6175  10.7646  12.1891  12.5518  12.7749  14.3421  14.9814
    16.6276  17.3478  19.1489

     occupation numbers 
     1.0000   1.0000   1.0000   1.0000   1.0000   1.0000   1.0000   1.0000
     1.0000   1.0000   1.0000   1.0000   1.0000   1.0000   1.0000   1.0000
     1.0096   1.0749   0.8953   0.0000   0.0000   0.0000   0.0000   0.0000
     0.0000   0.0000   0.0000

          k = 0.1250 0.3608 0.1401 (  2658 PWs)   bands (ev):

   -84.0779 -47.3891 -47.3631 -47.2847 -22.7480  -8.0176  -7.2873  -6.9798
    -5.8580  -5.7526   4.8529   5.3024   6.0917   6.3560   7.2079   8.2912
    10.2809  10.6286  10.7507  12.0300  12.5699  12.8308  14.3516  14.9643
    16.6227  17.4129  19.1580

     occupation numbers 
     1.0000   1.0000   1.0000   1.0000   1.0000   1.0000   1.0000   1.0000
     1.0000   1.0000   1.0000   1.0000   1.0000   1.0000   1.0000   1.0000
     1.0112   1.0701   0.9231   0.0000   0.0000   0.0000   0.0000   0.0000
     0.0000   0.0000   0.0000

          k = 0.1250 0.5052 0.0000 (  2661 PWs)   bands (ev):

   -84.0767 -47.4016 -47.3679 -47.2826 -22.5795  -7.8614  -7.3928  -7.1870
    -6.0733  -5.6494   4.2723   5.3042   6.2847   6.5709   7.0384   7.7581
    10.1173  10.4757  10.6932  11.8452  12.4901  12.7794  13.8607  16.6134
    16.9061  17.2146  20.8275

     occupation numbers 
     1.0000   1.0000   1.0000   1.0000   1.0000   1.0000   1.0000   1.0000
     1.0000   1.0000   1.0000   1.0000   1.0000   1.0000   1.0000   1.0000
     1.0010   1.0632   1.0149   0.0000   0.0000   0.0000   0.0000   0.0000
     0.0000   0.0000   0.0000

          k = 0.1250 0.5052 0.1401 (  2664 PWs)   bands (ev):

   -84.0767 -47.4015 -47.3679 -47.2826 -22.5795  -7.8556  -7.4193  -7.1659
    -6.0736  -5.6503   4.3343   5.2577   6.2633   6.6615   7.0169   7.6157
    10.1705  10.4664  10.7094  11.8656  12.5648  12.7059  13.9242  16.5035
    16.8415  17.2021  20.8042

     occupation numbers 
     1.0000   1.0000   1.0000   1.0000   1.0000   1.0000   1.0000   1.0000
     1.0000   1.0000   1.0000   1.0000   1.0000   1.0000   1.0000   1.0000
     1.0025   1.0601   0.9932   0.0000   0.0000   0.0000   0.0000   0.0000
     0.0000   0.0000   0.0000

          k = 0.2500 0.4330 0.0000 (  2661 PWs)   bands (ev):

   -84.0767 -47.3954 -47.3741 -47.2826 -22.5807  -7.7330  -7.2683  -7.1793
    -6.4067  -5.6456   4.8375   5.0068   5.9658   6.6195   6.8264   7.8167
    10.2684  10.5192  10.7657  12.3939  12.4812  13.3650  14.1656  15.0004
    15.9970  17.1341  21.2558

     occupation numbers 
     1.0000   1.0000   1.0000   1.0000   1.0000   1.0000   1.0000   1.0000
     1.0000   1.0000   1.0000   1.0000   1.0000   1.0000   1.0000   1.0000
     1.0096   1.0763   0.8928   0.0000   0.0000   0.0000   0.0000   0.0000
     0.0000   0.0000   0.0000

          k = 0.2500 0.4330 0.1401 (  2664 PWs)   bands (ev):

   -84.0767 -47.3954 -47.3740 -47.2827 -22.5807  -7.6959  -7.4107  -7.0668
    -6.4120  -5.6478   4.8592   5.0206   5.9927   6.5776   6.7840   7.8361
    10.2617  10.5110  10.8157  12.2039  12.4806  13.4149  14.2900  14.9541
    16.0777  17.0480  21.3042

     occupation numbers 
     1.0000   1.0000   1.0000   1.0000   1.0000   1.0000   1.0000   1.0000
     1.0000   1.0000   1.0000   1.0000   1.0000   1.0000   1.0000   1.0000
     1.0088   1.0741   0.7758   0.0000   0.0000   0.0000   0.0000   0.0000
     0.0000   0.0000   0.0000

          k = 0.2500 0.5774 0.0000 (  2661 PWs)   bands (ev):

   -84.0762 -47.3959 -47.3808 -47.2817 -22.5094  -7.6381  -7.2735  -7.1431
    -6.7044  -5.6056   4.6708   5.1194   5.6902   6.7708   6.9997   7.4247
    10.0963  10.6399  10.7459  12.4098  12.4783  13.5295  14.1815  15.1987
    15.7234  17.2884  22.0987

     occupation numbers 
     1.0000   1.0000   1.0000   1.0000   1.0000   1.0000   1.0000   1.0000
     1.0000   1.0000   1.0000   1.0000   1.0000   1.0000   1.0000   1.0000
     1.0007   1.0638   0.9324   0.0000   0.0000   0.0000   0.0000   0.0000
     0.0000   0.0000   0.0000

          k = 0.2500 0.5774 0.1401 (  2673 PWs)   bands (ev):

   -84.0762 -47.3959 -47.3808 -47.2818 -22.5094  -7.6277  -7.3058  -7.1178
    -6.7094  -5.6059   4.7177   5.1368   5.7415   6.6957   6.9908   7.3444
    10.1146  10.6289  10.7921  12.2778  12.4171  13.5134  14.3825  15.2385
    15.8037  17.1905  22.1952

     occupation numbers 
     1.0000   1.0000   1.0000   1.0000   1.0000   1.0000   1.0000   1.0000
     1.0000   1.0000   1.0000   1.0000   1.0000   1.0000   1.0000   1.0000
     1.0010   1.0699   0.8339   0.0000   0.0000   0.0000   0.0000   0.0000
     0.0000   0.0000   0.0000

          k = 0.0000-0.1443 0.1401 (  2670 PWs)   bands (ev):

   -84.0809 -47.3583 -47.3521 -47.2898 -23.1262  -8.7971  -7.2153  -5.9966
    -5.6660  -5.3282   4.9646   5.3875   5.8040   7.8211   8.1675   8.4029
    10.0763  10.2407  10.9197  11.7936  12.7246  13.1077  14.6483  15.2692
    15.7921  16.4286  18.8990

     occupation numbers 
     1.0000   1.0000   1.0000   1.0000   1.0000   1.0000   1.0000   1.0000
     1.0000   1.0000   1.0000   1.0000   1.0000   1.0000   1.0000   1.0000
     1.0005   1.0067   0.4935   0.0000   0.0000   0.0000   0.0000   0.0000
     0.0000   0.0000   0.0000

          k = 0.0000-0.2887 0.1401 (  2656 PWs)   bands (ev):

   -84.0791 -47.3780 -47.3568 -47.2868 -22.9090  -8.3516  -7.2186  -6.5906
    -5.8515  -5.5380   4.9414   5.3313   6.0263   6.5410   7.8058   8.5503
    10.1500  10.5561  10.8591  11.9213  12.4526  12.9757  14.5476  15.0890
    16.1731  17.3098  18.2212

     occupation numbers 
     1.0000   1.0000   1.0000   1.0000   1.0000   1.0000   1.0000   1.0000
     1.0000   1.0000   1.0000   1.0000   1.0000   1.0000   1.0000   1.0000
     1.0018   1.0827   0.6603   0.0000   0.0000   0.0000   0.0000   0.0000
     0.0000   0.0000   0.0000

          k = 0.0000-0.4330 0.1401 (  2668 PWs)   bands (ev):

   -84.0774 -47.3978 -47.3616 -47.2839 -22.6783  -7.8543  -7.5884  -7.0726
    -5.7376  -5.7057   4.3950   5.3216   6.2122   6.4162   7.4793   8.0620
    10.0781  10.5026  10.7169  11.5609  12.2263  13.0065  13.9742  16.4585
    16.8967  17.8309  19.2970

     occupation numbers 
     1.0000   1.0000   1.0000   1.0000   1.0000   1.0000   1.0000   1.0000
     1.0000   1.0000   1.0000   1.0000   1.0000   1.0000   1.0000   1.0000
     1.0005   1.0718   0.9820   0.0001   0.0000   0.0000   0.0000   0.0000
     0.0000   0.0000   0.0000

          k =-0.1250-0.3608 0.1401 (  2658 PWs)   bands (ev):

   -84.0779 -47.3891 -47.3631 -47.2847 -22.7480  -8.0051  -7.3339  -6.9471
    -5.8585  -5.7489   4.8163   5.2959   6.0734   6.3935   7.2037   8.3767
    10.2492  10.6226  10.7551  12.1249  12.6026  12.6542  14.3748  14.9857
    16.4774  17.4056  19.1591

     occupation numbers 
     1.0000   1.0000   1.0000   1.0000   1.0000   1.0000   1.0000   1.0000
     1.0000   1.0000   1.0000   1.0000   1.0000   1.0000   1.0000   1.0000
     1.0075   1.0728   0.9146   0.0000   0.0000   0.0000   0.0000   0.0000
     0.0000   0.0000   0.0000

          k =-0.1250-0.5052 0.1401 (  2664 PWs)   bands (ev):

   -84.0767 -47.4015 -47.3679 -47.2826 -22.5795  -7.8300  -7.4834  -7.1285
    -6.0746  -5.6468   4.3073   5.2708   6.2905   6.5753   7.0211   7.7261
    10.1362  10.4671  10.7324  11.9652  12.3591  12.7535  13.9410  16.5144
    16.8670  17.0801  20.8238

     occupation numbers 
     1.0000   1.0000   1.0000   1.0000   1.0000   1.0000   1.0000   1.0000
     1.0000   1.0000   1.0000   1.0000   1.0000   1.0000   1.0000   1.0000
     1.0014   1.0603   0.9567   0.0000   0.0000   0.0000   0.0000   0.0000
     0.0000   0.0000   0.0000

 ------ SPIN DOWN ----------


          k = 0.0000 0.0000 0.0000 (  2625 PWs)   bands (ev):

   -84.2751 -47.5310 -47.5130 -47.5130 -23.2118  -8.9304  -7.4308  -5.9045
    -5.2376  -5.2376   4.5102   5.6600   5.6600   8.0399   8.8477   8.8477
     9.7373   9.7373  10.2550  11.3010  13.1068  13.1068  14.5808  15.2597
    15.2597  17.4696  18.8386

     occupation numbers 
     1.0000   1.0000   1.0000   1.0000   1.0000   1.0000   1.0000   1.0000
     1.0000   1.0000   1.0000   1.0000   1.0000   1.0000   1.0000   1.0000
     1.0000   1.0000   1.0081   0.0106   0.0000   0.0000   0.0000   0.0000
     0.0000   0.0000   0.0000

          k = 0.0000 0.0000 0.1401 (  2690 PWs)   bands (ev):

   -84.2752 -47.5313 -47.5133 -47.5133 -23.2117  -8.9837  -7.2521  -6.0511
    -5.2376  -5.2376   4.7226   5.6615   5.6615   7.5656   8.8407   8.8407
     9.7380   9.7380  10.5907  11.2414  13.1227  13.1227  15.0407  15.2466
    15.2466  16.6601  18.8349

     occupation numbers 
     1.0000   1.0000   1.0000   1.0000   1.0000   1.0000   1.0000   1.0000
     1.0000   1.0000   1.0000   1.0000   1.0000   1.0000   1.0000   1.0000
     1.0000   1.0000   1.0819   0.0245   0.0000   0.0000   0.0000   0.0000
     0.0000   0.0000   0.0000

          k = 0.0000 0.1443 0.0000 (  2661 PWs)   bands (ev):

   -84.2744 -47.5300 -47.5213 -47.5151 -23.1254  -8.7660  -7.3797  -5.8791
    -5.6707  -5.3277   4.7383   5.3972   5.7560   7.8218   8.3486   8.3740
     9.9628  10.1235  10.4908  11.7737  12.6569  13.0152  14.6583  15.0250
    15.8051  16.6620  18.6467

     occupation numbers 
     1.0000   1.0000   1.0000   1.0000   1.0000   1.0000   1.0000   1.0000
     1.0000   1.0000   1.0000   1.0000   1.0000   1.0000   1.0000   1.0000
     1.0001   1.0012   1.0682   0.0000   0.0000   0.0000   0.0000   0.0000
     0.0000   0.0000   0.0000

          k = 0.0000 0.1443 0.1401 (  2670 PWs)   bands (ev):

   -84.2744 -47.5300 -47.5213 -47.5152 -23.1253  -8.8147  -7.2313  -5.9976
    -5.6668  -5.3277   4.8989   5.3522   5.7581   7.8531   8.0520   8.3687
     9.9517  10.1222  10.6950  11.7368  12.6519  13.0241  14.6397  15.3269
    15.8034  16.4203  18.7857

     occupation numbers 
     1.0000   1.0000   1.0000   1.0000   1.0000   1.0000   1.0000   1.0000
     1.0000   1.0000   1.0000   1.0000   1.0000   1.0000   1.0000   1.0000
     1.0000   1.0011   1.0126   0.0000   0.0000   0.0000   0.0000   0.0000
     0.0000   0.0000   0.0000

          k = 0.0000 0.2887 0.0000 (  2664 PWs)   bands (ev):

   -84.2727 -47.5410 -47.5271 -47.5198 -22.9083  -8.3413  -7.2763  -6.6280
    -5.7991  -5.5374   4.9674   5.2882   5.9838   6.3913   7.7738   8.4775
    10.0120  10.4263  10.6252  12.0057  12.3227  12.8942  14.5939  15.1566
    16.1415  17.3142  18.2272

     occupation numbers 
     1.0000   1.0000   1.0000   1.0000   1.0000   1.0000   1.0000   1.0000
     1.0000   1.0000   1.0000   1.0000   1.0000   1.0000   1.0000   1.0000
     1.0001   1.0463   1.0716   0.0000   0.0000   0.0000   0.0000   0.0000
     0.0000   0.0000   0.0000

          k = 0.0000 0.2887 0.1401 (  2656 PWs)   bands (ev):

   -84.2727 -47.5409 -47.5270 -47.5198 -22.9082  -8.3742  -7.2133  -6.6055
    -5.8565  -5.5374   4.9024   5.3608   5.9873   6.4514   7.7675   8.4180
    10.0204  10.4236  10.6753  11.7158  12.5241  12.9052  14.5668  15.0385
    16.4344  17.3189  18.2140

     occupation numbers 
     1.0000   1.0000   1.0000   1.0000   1.0000   1.0000   1.0000   1.0000
     1.0000   1.0000   1.0000   1.0000   1.0000   1.0000   1.0000   1.0000
     1.0002   1.0454   1.0351   0.0000   0.0000   0.0000   0.0000   0.0000
     0.0000   0.0000   0.0000

          k = 0.0000 0.4330 0.0000 (  2668 PWs)   bands (ev):

   -84.2710 -47.5605 -47.5246 -47.5241 -22.6776  -7.9219  -7.4465  -7.1888
    -5.7370  -5.7010   4.3668   5.3771   6.1700   6.2999   7.4631   7.9739
     9.8690  10.3506  10.5199  11.4964  12.1644  12.9208  13.9926  16.7503
    16.9477  17.8552  19.2983

     occupation numbers 
     1.0000   1.0000   1.0000   1.0000   1.0000   1.0000   1.0000   1.0000
     1.0000   1.0000   1.0000   1.0000   1.0000   1.0000   1.0000   1.0000
     1.0000   1.0241   1.0764   0.0003   0.0000   0.0000   0.0000   0.0000
     0.0000   0.0000   0.0000

          k = 0.0000 0.4330 0.1401 (  2668 PWs)   bands (ev):

   -84.2710 -47.5605 -47.5246 -47.5241 -22.6776  -7.9230  -7.4879  -7.1355
    -5.7370  -5.7126   4.4178   5.2912   6.1767   6.3918   7.4517   7.8561
     9.9273  10.3493  10.5072  11.4326  12.3530  12.9405  13.8648  16.7897
    16.8397  17.8229  19.3022

     occupation numbers 
     1.0000   1.0000   1.0000   1.0000   1.0000   1.0000   1.0000   1.0000
     1.0000   1.0000   1.0000   1.0000   1.0000   1.0000   1.0000   1.0000
     1.0000   1.0238   1.0731   0.0012   0.0000   0.0000   0.0000   0.0000
     0.0000   0.0000   0.0000

          k = 0.0000-0.5774 0.0000 (  2658 PWs)   bands (ev):

   -84.2703 -47.5686 -47.5265 -47.5228 -22.5777  -8.0074  -7.3943  -7.2562
    -5.8169  -5.6524   3.9550   5.4613   6.2131   6.5163   7.4170   7.6862
     9.7139  10.2426  10.4474  11.1810  12.2357  12.9647  13.6891  17.2045
    17.7144  17.9653  20.5725

     occupation numbers 
     1.0000   1.0000   1.0000   1.0000   1.0000   1.0000   1.0000   1.0000
     1.0000   1.0000   1.0000   1.0000   1.0000   1.0000   1.0000   1.0000
     1.0000   1.0069   1.0535   0.0525   0.0000   0.0000   0.0000   0.0000
     0.0000   0.0000   0.0000

          k = 0.0000-0.5774 0.1401 (  2664 PWs)   bands (ev):

   -84.2703 -47.5687 -47.5265 -47.5228 -22.5776  -8.0005  -7.4204  -7.2407
    -5.8169  -5.6485   4.0119   5.3667   6.2201   6.6519   7.4049   7.4741
     9.7752  10.2428  10.4729  11.2233  12.4248  12.9861  13.5517  16.8416
    17.6745  17.9238  21.2741

     occupation numbers 
     1.0000   1.0000   1.0000   1.0000   1.0000   1.0000   1.0000   1.0000
     1.0000   1.0000   1.0000   1.0000   1.0000   1.0000   1.0000   1.0000
     1.0000   1.0069   1.0623   0.0311   0.0000   0.0000   0.0000   0.0000
     0.0000   0.0000   0.0000

          k = 0.1250 0.2165 0.0000 (  2673 PWs)   bands (ev):

   -84.2732 -47.5343 -47.5280 -47.5194 -22.9732  -8.4707  -7.3012  -6.3127
    -5.8236  -5.5352   5.0934   5.1585   5.8676   6.8654   7.6857   8.5539
    10.0909  10.4036  10.6188  12.2980  12.4855  12.9317  13.8640  15.3052
    16.0449  17.0498  18.1156

     occupation numbers 
     1.0000   1.0000   1.0000   1.0000   1.0000   1.0000   1.0000   1.0000
     1.0000   1.0000   1.0000   1.0000   1.0000   1.0000   1.0000   1.0000
     1.0007   1.0389   1.0744   0.0000   0.0000   0.0000   0.0000   0.0000
     0.0000   0.0000   0.0000

          k = 0.1250 0.2165 0.1401 (  2654 PWs)   bands (ev):

   -84.2732 -47.5343 -47.5279 -47.5193 -22.9732  -8.5079  -7.2142  -6.2966
    -5.8951  -5.5358   5.0303   5.2287   5.8690   6.9312   7.6901   8.4898
    10.0879  10.3808  10.6743  12.0766  12.6572  12.9173  13.8664  15.1662
    16.2634  17.0476  18.1313

     occupation numbers 
     1.0000   1.0000   1.0000   1.0000   1.0000   1.0000   1.0000   1.0000
     1.0000   1.0000   1.0000   1.0000   1.0000   1.0000   1.0000   1.0000
     1.0006   1.0320   1.0361   0.0000   0.0000   0.0000   0.0000   0.0000
     0.0000   0.0000   0.0000

          k = 0.1250 0.3608 0.0000 (  2648 PWs)   bands (ev):

   -84.2715 -47.5518 -47.5262 -47.5247 -22.7473  -8.0248  -7.2382  -7.0794
    -5.8573  -5.7289   4.8282   5.2989   6.0469   6.2414   7.1838   8.2591
    10.0823  10.4319  10.5813  12.1110  12.5125  12.7308  14.3293  14.9795
    16.6204  17.3447  19.1493

     occupation numbers 
     1.0000   1.0000   1.0000   1.0000   1.0000   1.0000   1.0000   1.0000
     1.0000   1.0000   1.0000   1.0000   1.0000   1.0000   1.0000   1.0000
     1.0006   1.0482   1.0829   0.0000   0.0000   0.0000   0.0000   0.0000
     0.0000   0.0000   0.0000

          k = 0.1250 0.3608 0.1401 (  2658 PWs)   bands (ev):

   -84.2715 -47.5518 -47.5263 -47.5247 -22.7473  -8.0348  -7.2975  -6.9874
    -5.8572  -5.7524   4.8193   5.2738   6.0463   6.3077   7.1773   8.2615
    10.0915  10.4392  10.5748  11.9617  12.5052  12.8052  14.3388  14.9625
    16.6148  17.4096  19.1584

     occupation numbers 
     1.0000   1.0000   1.0000   1.0000   1.0000   1.0000   1.0000   1.0000
     1.0000   1.0000   1.0000   1.0000   1.0000   1.0000   1.0000   1.0000
     1.0007   1.0507   1.0833   0.0000   0.0000   0.0000   0.0000   0.0000
     0.0000   0.0000   0.0000

          k = 0.1250 0.5052 0.0000 (  2661 PWs)   bands (ev):

   -84.2703 -47.5642 -47.5309 -47.5228 -22.5789  -7.8665  -7.4054  -7.2047
    -6.0724  -5.6487   4.2463   5.2818   6.2473   6.5199   7.0127   7.7287
     9.8633  10.3110  10.5315  11.8254  12.4274  12.7055  13.8377  16.6106
    16.9035  17.2086  20.8222

     occupation numbers 
     1.0000   1.0000   1.0000   1.0000   1.0000   1.0000   1.0000   1.0000
     1.0000   1.0000   1.0000   1.0000   1.0000   1.0000   1.0000   1.0000
     1.0000   1.0159   1.0790   0.0000   0.0000   0.0000   0.0000   0.0000
     0.0000   0.0000   0.0000

          k = 0.1250 0.5052 0.1401 (  2664 PWs)   bands (ev):

   -84.2703 -47.5642 -47.5309 -47.5229 -22.5788  -7.8607  -7.4319  -7.1836
    -6.0728  -5.6496   4.3079   5.2358   6.2270   6.6080   6.9914   7.5866
     9.9057  10.3031  10.5561  11.8519  12.4847  12.6388  13.9071  16.5011
    16.8407  17.1979  20.7996

     occupation numbers 
     1.0000   1.0000   1.0000   1.0000   1.0000   1.0000   1.0000   1.0000
     1.0000   1.0000   1.0000   1.0000   1.0000   1.0000   1.0000   1.0000
     1.0000   1.0145   1.0827   0.0000   0.0000   0.0000   0.0000   0.0000
     0.0000   0.0000   0.0000

          k = 0.2500 0.4330 0.0000 (  2661 PWs)   bands (ev):

   -84.2703 -47.5581 -47.5370 -47.5229 -22.5801  -7.7451  -7.2729  -7.1977
    -6.4060  -5.6449   4.8137   4.9779   5.9419   6.5646   6.7912   7.7871
     9.9816  10.3568  10.6348  12.3135  12.4005  13.3656  14.1540  14.9990
    15.9921  17.1274  21.2497

     occupation numbers 
     1.0000   1.0000   1.0000   1.0000   1.0000   1.0000   1.0000   1.0000
     1.0000   1.0000   1.0000   1.0000   1.0000   1.0000   1.0000   1.0000
     1.0001   1.0256   1.0668   0.0000   0.0000   0.0000   0.0000   0.0000
     0.0000   0.0000   0.0000

          k = 0.2500 0.4330 0.1401 (  2664 PWs)   bands (ev):

   -84.2703 -47.5581 -47.5369 -47.5230 -22.5801  -7.7085  -7.4191  -7.0811
    -6.4111  -5.6471   4.8349   4.9920   5.9689   6.5248   6.7495   7.8045
     9.9749  10.3463  10.6846  12.1324  12.3964  13.4144  14.2758  14.9523
    16.0733  17.0440  21.2992

     occupation numbers 
     1.0000   1.0000   1.0000   1.0000   1.0000   1.0000   1.0000   1.0000
     1.0000   1.0000   1.0000   1.0000   1.0000   1.0000   1.0000   1.0000
     1.0001   1.0231   1.0251   0.0000   0.0000   0.0000   0.0000   0.0000
     0.0000   0.0000   0.0000

          k = 0.2500 0.5774 0.0000 (  2661 PWs)   bands (ev):

   -84.2698 -47.5586 -47.5436 -47.5220 -22.5089  -7.6458  -7.2860  -7.1575
    -6.7044  -5.6047   4.6465   5.0954   5.6674   6.7314   6.9516   7.3997
     9.7908  10.4885  10.6065  12.3300  12.4001  13.5255  14.1722  15.1940
    15.7220  17.2821  22.0900

     occupation numbers 
     1.0000   1.0000   1.0000   1.0000   1.0000   1.0000   1.0000   1.0000
     1.0000   1.0000   1.0000   1.0000   1.0000   1.0000   1.0000   1.0000
     1.0000   1.0674   1.0785   0.0000   0.0000   0.0000   0.0000   0.0000
     0.0000   0.0000   0.0000

          k = 0.2500 0.5774 0.1401 (  2673 PWs)   bands (ev):

   -84.2698 -47.5586 -47.5436 -47.5221 -22.5088  -7.6352  -7.3186  -7.1323
    -6.7092  -5.6049   4.6932   5.1127   5.7191   6.6575   6.9421   7.3194
     9.8061  10.4778  10.6529  12.2052  12.3342  13.5121  14.3697  15.2343
    15.7997  17.1898  22.1864

     occupation numbers 
     1.0000   1.0000   1.0000   1.0000   1.0000   1.0000   1.0000   1.0000
     1.0000   1.0000   1.0000   1.0000   1.0000   1.0000   1.0000   1.0000
     1.0000   1.0639   1.0550   0.0000   0.0000   0.0000   0.0000   0.0000
     0.0000   0.0000   0.0000

          k = 0.0000-0.1443 0.1401 (  2670 PWs)   bands (ev):

   -84.2744 -47.5300 -47.5213 -47.5152 -23.1253  -8.8144  -7.2327  -5.9976
    -5.6654  -5.3277   4.8998   5.3427   5.7567   7.7927   8.1371   8.3727
     9.9483  10.1210  10.6711  11.7741  12.6421  13.0253  14.6508  15.2569
    15.7948  16.4150  18.8856

     occupation numbers 
     1.0000   1.0000   1.0000   1.0000   1.0000   1.0000   1.0000   1.0000
     1.0000   1.0000   1.0000   1.0000   1.0000   1.0000   1.0000   1.0000
     1.0000   1.0011   1.0393   0.0000   0.0000   0.0000   0.0000   0.0000
     0.0000   0.0000   0.0000

          k = 0.0000-0.2887 0.1401 (  2656 PWs)   bands (ev):

   -84.2727 -47.5409 -47.5270 -47.5198 -22.9082  -8.3690  -7.2353  -6.5909
    -5.8519  -5.5374   4.9040   5.2798   5.9838   6.5013   7.7747   8.5212
     9.9982  10.4232  10.6186  11.8544  12.4245  12.8994  14.5417  15.0834
    16.1627  17.3120  18.2197

     occupation numbers 
     1.0000   1.0000   1.0000   1.0000   1.0000   1.0000   1.0000   1.0000
     1.0000   1.0000   1.0000   1.0000   1.0000   1.0000   1.0000   1.0000
     1.0001   1.0453   1.0745   0.0000   0.0000   0.0000   0.0000   0.0000
     0.0000   0.0000   0.0000

          k = 0.0000-0.4330 0.1401 (  2668 PWs)   bands (ev):

   -84.2710 -47.5605 -47.5246 -47.5241 -22.6776  -7.8692  -7.5937  -7.0874
    -5.7370  -5.7054   4.3659   5.2981   6.1724   6.3571   7.4592   8.0280
     9.8762  10.3485  10.5129  11.5575  12.1394  12.9342  13.9528  16.4505
    16.8987  17.8292  19.2986

     occupation numbers 
     1.0000   1.0000   1.0000   1.0000   1.0000   1.0000   1.0000   1.0000
     1.0000   1.0000   1.0000   1.0000   1.0000   1.0000   1.0000   1.0000
     1.0000   1.0236   1.0746   0.0001   0.0000   0.0000   0.0000   0.0000
     0.0000   0.0000   0.0000

          k =-0.1250-0.3608 0.1401 (  2658 PWs)   bands (ev):

   -84.2715 -47.5518 -47.5263 -47.5247 -22.7473  -8.0225  -7.3435  -6.9550
    -5.8577  -5.7488   4.7836   5.2661   6.0275   6.3467   7.1730   8.3462
    10.0581  10.4324  10.5824  12.0494  12.5387  12.6373  14.3586  14.9840
    16.4700  17.4024  19.1599

     occupation numbers 
     1.0000   1.0000   1.0000   1.0000   1.0000   1.0000   1.0000   1.0000
     1.0000   1.0000   1.0000   1.0000   1.0000   1.0000   1.0000   1.0000
     1.0004   1.0484   1.0828   0.0000   0.0000   0.0000   0.0000   0.0000
     0.0000   0.0000   0.0000

          k =-0.1250-0.5052 0.1401 (  2664 PWs)   bands (ev):

   -84.2703 -47.5642 -47.5309 -47.5229 -22.5788  -7.8338  -7.4986  -7.1448
    -6.0737  -5.6461   4.2809   5.2491   6.2538   6.5247   6.9954   7.6945
     9.8751  10.3008  10.5777  11.9668  12.2772  12.6774  13.9202  16.5111
    16.8656  17.0772  20.8199

     occupation numbers 
     1.0000   1.0000   1.0000   1.0000   1.0000   1.0000   1.0000   1.0000
     1.0000   1.0000   1.0000   1.0000   1.0000   1.0000   1.0000   1.0000
     1.0000   1.0142   1.0831   0.0000   0.0000   0.0000   0.0000   0.0000
     0.0000   0.0000   0.0000

     the Fermi energy is    10.9552 ev

!    total energy              =    -573.02803031 Ry
     total all-electron energy =     -4292.138867 Ry
     estimated scf accuracy    <       0.00000003 Ry
     smearing contrib. (-TS)   =       0.00693697 Ry
     internal energy E=F+TS    =    -573.03496728 Ry

     The total energy is F=E-TS. E is the sum of the following terms:
     one-electron contribution =    -357.95464880 Ry
     hartree contribution      =     200.01269013 Ry
     xc contribution           =     -56.84301980 Ry
     ewald contribution        =    -196.06807414 Ry
     one-center paw contrib.   =    -162.18191467 Ry
      -> PAW hartree energy AE =     311.19416662 Ry
      -> PAW hartree energy PS =    -309.82857615 Ry
      -> PAW xc energy AE      =    -217.15320133 Ry
      -> PAW xc energy PS      =      53.60569619 Ry
      -> total E_H with PAW    =     201.37828060 Ry
      -> total E_XC with PAW   =    -220.39052494 Ry

     total magnetization       =    -0.20 Bohr mag/cell
     absolute magnetization    =     0.20 Bohr mag/cell

     convergence has been achieved in  21 iterations

     Forces acting on atoms (cartesian axes, Ry/au):

     atom    1 type  1   force =     0.00000000    0.00000000    0.01332844
     atom    2 type  2   force =     0.00000000    0.00000000    0.03456657
     atom    3 type  2   force =    -0.00000000   -0.00000000   -0.04961011
     atom    4 type  3   force =     0.00000000    0.00000000    0.00171511
     The non-local contrib.  to forces
     atom    1 type  1   force =    -0.00000000   -0.00000000   -0.01419405
     atom    2 type  2   force =     0.00000000    0.00000000   -0.60343446
     atom    3 type  2   force =     0.00000000    0.00000000    0.46535491
     atom    4 type  3   force =     0.00000000    0.00000000   -0.02022410
     The ionic contribution  to forces
     atom    1 type  1   force =    -0.00000000   -0.00000000    3.27505569
     atom    2 type  2   force =     0.00000000   -0.00000000   26.58357410
     atom    3 type  2   force =    -0.00000000    0.00000000  -24.43034299
     atom    4 type  3   force =     0.00000000   -0.00000000   -5.42828680
     The local contribution  to forces
     atom    1 type  1   force =    -0.00000000   -0.00000000   -3.24741495
     atom    2 type  2   force =     0.00000001   -0.00000001  -25.95044171
     atom    3 type  2   force =    -0.00000001    0.00000001   23.91911177
     atom    4 type  3   force =     0.00000000   -0.00000000    5.44906086
     The core correction contribution to forces
     atom    1 type  1   force =     0.00000000   -0.00000000   -0.00008411
     atom    2 type  2   force =    -0.00000000    0.00000000    0.00483677
     atom    3 type  2   force =     0.00000000   -0.00000000   -0.00362374
     atom    4 type  3   force =     0.00000000   -0.00000000    0.00109110
     The Hubbard contrib.    to forces
     atom    1 type  1   force =     0.00000000    0.00000000    0.00000000
     atom    2 type  2   force =     0.00000000    0.00000000    0.00000000
     atom    3 type  2   force =     0.00000000    0.00000000    0.00000000
     atom    4 type  3   force =     0.00000000    0.00000000    0.00000000
     The SCF correction term to forces
     atom    1 type  1   force =    -0.00000000    0.00000000   -0.00002040
     atom    2 type  2   force =    -0.00000000    0.00000000    0.00004561
     atom    3 type  2   force =     0.00000000   -0.00000000   -0.00009632
     atom    4 type  3   force =     0.00000000   -0.00000000    0.00008780

     Total force =     0.061940     Total SCF correction =     0.000140

     Writing all to output data dir ./out/pw.save/ :
     XML data file, charge density, pseudopotentials, collected wavefunctions
 
     init_run     :     15.01s CPU      3.60s WALL (       1 calls)
     electrons    :    135.66s CPU     34.22s WALL (       1 calls)
     forces       :      0.60s CPU      0.58s WALL (       1 calls)

     Called by init_run:
     wfcinit      :      0.27s CPU      0.35s WALL (       1 calls)
     wfcinit:atom :      0.05s CPU      0.05s WALL (      50 calls)
     wfcinit:wfcr :      0.17s CPU      0.22s WALL (      50 calls)
     potinit      :     14.11s CPU      2.57s WALL (       1 calls)
     hinit0       :      0.53s CPU      0.52s WALL (       1 calls)

     Called by electrons:
     c_bands      :     14.22s CPU     14.28s WALL (      21 calls)
     sum_band     :      2.79s CPU      2.75s WALL (      21 calls)
     v_of_rho     :      0.34s CPU      0.20s WALL (      22 calls)
     v_h          :      0.23s CPU      0.03s WALL (      22 calls)
     v_xc         :      0.12s CPU      0.17s WALL (      23 calls)
     newd         :      0.70s CPU      0.61s WALL (      22 calls)
                                        0.61s GPU  (      22 calls)
     PAW_pot      :    122.27s CPU     16.60s WALL (      22 calls)
     mix_rho      :      0.60s CPU      0.58s WALL (      21 calls)

     Called by c_bands:
     init_us_2    :      0.93s CPU      0.89s WALL (    2200 calls)
     cegterg      :     12.53s CPU     12.63s WALL (    1050 calls)

     Called by sum_band:
     sum_band:wei :      0.04s CPU      0.04s WALL (      21 calls)
                                        0.04s GPU  (      21 calls)
     sum_band:loo :      1.51s CPU      1.46s WALL (      21 calls)
                                        1.46s GPU  (      21 calls)
     sum_band:buf :      0.16s CPU      0.18s WALL (    1050 calls)
                                        0.17s GPU  (    1050 calls)
     sum_band:ini :      0.44s CPU      0.44s WALL (    1050 calls)
                                        0.43s GPU  (    1050 calls)
     sum_band:cal :      0.04s CPU      0.06s WALL (    1050 calls)
                                        0.05s GPU  (    1050 calls)
     sum_band:bec :      0.24s CPU      0.25s WALL (    1050 calls)
                                        0.24s GPU  (    1050 calls)
     addusdens    :      1.12s CPU      1.12s WALL (      21 calls)
                                        1.12s GPU  (      21 calls)
     addusd:skk   :      0.00s CPU      0.00s WALL (      63 calls)
                                        0.00s GPU  (      63 calls)

     Called by *egterg:
     cdiaghg      :      4.28s CPU      4.44s WALL (    5039 calls)
                                        4.38s GPU  (    5039 calls)
     cegterg:over :      0.91s CPU      0.95s WALL (    3989 calls)
     cegterg:upda :      0.69s CPU      0.69s WALL (    3989 calls)
     cegterg:last :      0.12s CPU      0.12s WALL (    1962 calls)
     h_psi        :      4.52s CPU      4.59s WALL (    5089 calls)
                                        4.52s GPU  (    5089 calls)
     s_psi        :      0.79s CPU      0.83s WALL (    5089 calls)
     g_psi        :      0.02s CPU      0.10s WALL (    3989 calls)
                                        0.05s GPU  (    3989 calls)

     Called by h_psi:
     h_psi:calbec :      0.16s CPU      0.28s WALL (    5089 calls)
                                        0.22s GPU  (    5089 calls)
     vloc_psi     :      3.11s CPU      3.09s WALL (    5089 calls)
                                        3.03s GPU  (    5089 calls)
     add_vuspsi   :      0.71s CPU      0.84s WALL (    5089 calls)
                                        0.78s GPU  (    5089 calls)

     General routines
     calbec       :      0.17s CPU      0.20s WALL (    6339 calls)
     fft          :      3.57s CPU      0.89s WALL (     563 calls)
                                        0.02s GPU  (     519 calls)
     ffts         :      5.06s CPU      0.85s WALL (     732 calls)
                                        0.02s GPU  (     688 calls)
     fftw         :      0.30s CPU      0.98s WALL (   16578 calls)
                                        0.80s GPU  (   16578 calls)
     interpolate  :      8.75s CPU      1.72s WALL (      44 calls)
 
     Parallel routines

     PAW routines
     PAW_pot      :    122.27s CPU     16.60s WALL (      22 calls)
     PAW_symme    :      0.01s CPU      0.01s WALL (      43 calls)
 
     PWSCF        :   2m32.26s CPU     39.01s WALL

 
   This run was terminated on:   5:37:11  12Jul2026            

=------------------------------------------------------------------------------=
   JOB DONE.
=------------------------------------------------------------------------------=
Warning: ieee_divide_by_zero is signaling
Warning: ieee_inexact is signaling
FORTRAN STOP
