
     Program PWSCF v.7.3.1 starts on 12Jul2026 at  5:37: 3 

     This program is part of the open-source Quantum ESPRESSO suite
     for quantum simulation of materials; please cite
         "P. Giannozzi et al., J. Phys.:Condens. Matter 21 395502 (2009);
         "P. Giannozzi et al., J. Phys.:Condens. Matter 29 465901 (2017);
         "P. Giannozzi et al., J. Chem. Phys. 152 154105 (2020);
          URL http://www.quantum-espresso.org", 
     in publications or presentations arising from this work. More details at
     http://www.quantum-espresso.org/quote

     Parallel version (MPI & OpenMP), running on      14 processor cores
     Number of MPI processes:                 1
     Threads/MPI process:                    14

     MPI processes distributed on     1 nodes
     1354564 MiB available memory on the printing compute node when the environment starts
 
     Reading input from pw.in

     Current dimensions of program PWSCF are:
     Max number of different atomic species (ntypx) = 10
     Max number of k-points (npk) =  40000
     Max angular momentum in pseudopotentials (lmaxx) =  4
     file Co.pbe-spn-kjpaw_psl.0.3.1.UPF: wavefunction(s)  3P 3D renormalized
     file O.pbe-n-kjpaw_psl.1.0.0.UPF: wavefunction(s)  2S 2P renormalized
     file K.pbe-spn-kjpaw_psl.1.0.0.UPF: wavefunction(s)  3S renormalized
 
     Subspace diagonalization in iterative solution of the eigenvalue problem:
     a serial algorithm will be used

 
     G-vector sticks info
     --------------------
     sticks:   dense  smooth     PW     G-vecs:    dense   smooth      PW
     Sum        1003     499    151                60133    21263    3497
 
     Using Slab Decomposition
 


     bravais-lattice index     =            4
     lattice parameter (alat)  =       5.4802  a.u.
     unit-cell volume          =     339.1348 (a.u.)^3
     number of atoms/cell      =            4
     number of atomic types    =            3
     number of electrons       =        38.00
     number of Kohn-Sham states=           27
     kinetic-energy cutoff     =      60.0000  Ry
     charge density cutoff     =     480.0000  Ry
     scf convergence threshold =      1.0E-07
     mixing beta               =       0.3000
     number of iterations used =            8  local-TF  mixing
     Exchange-correlation= SLA  PW   PBX  PBC
                           (   1   4   3   4   0   0   0)

     GPU acceleration is ACTIVE.  1 visible GPUs per MPI rank
     GPU-aware MPI enabled


     GPU used by master process:

        Device Number: 0
        Device name: NVIDIA A100-SXM4-80GB
        Compute capability : 80
        Ratio of single to double precision performance  : 2
        Memory Clock Rate (KHz): 1593000
        Memory Bus Width (bits): 5120
        Peak Memory Bandwidth (GB/s): ******

     celldm(1)=   5.480206  celldm(2)=   0.000000  celldm(3)=   2.379310
     celldm(4)=   0.000000  celldm(5)=   0.000000  celldm(6)=   0.000000

     crystal axes: (cart. coord. in units of alat)
               a(1) = (   1.000000   0.000000   0.000000 )  
               a(2) = (  -0.500000   0.866025   0.000000 )  
               a(3) = (   0.000000   0.000000   2.379310 )  

     reciprocal axes: (cart. coord. in units 2 pi/alat)
               b(1) = (  1.000000  0.577350 -0.000000 )  
               b(2) = (  0.000000  1.154701  0.000000 )  
               b(3) = (  0.000000 -0.000000  0.420290 )  


     PseudoPot. # 1 for Co read from file:
     ../../pseudo/Co.pbe-spn-kjpaw_psl.0.3.1.UPF
     MD5 check sum: 3c0a43779828c046024e4f3be63f8e67
     Pseudo is Projector augmented-wave + core cor, Zval = 17.0
     Generated using &quot;atomic&quot; code by A. Dal Corso  v.6.2.2
     Shape of augmentation charge: PSQ
     Using radial grid of 1193 points,  6 beta functions with: 
                l(1) =   0
                l(2) =   0
                l(3) =   1
                l(4) =   1
                l(5) =   2
                l(6) =   2
     Q(r) pseudized with 0 coefficients 


     PseudoPot. # 2 for O  read from file:
     ../../pseudo/O.pbe-n-kjpaw_psl.1.0.0.UPF
     MD5 check sum: e99d9cef9b487d1ca56f5b95ecd0fd7a
     Pseudo is Projector augmented-wave + core cor, Zval =  6.0
     Generated using &quot;atomic&quot; code by A. Dal Corso  v.6.3
     Shape of augmentation charge: PSQ
     Using radial grid of 1095 points,  4 beta functions with: 
                l(1) =   0
                l(2) =   0
                l(3) =   1
                l(4) =   1
     Q(r) pseudized with 0 coefficients 


     PseudoPot. # 3 for K  read from file:
     ../../pseudo/K.pbe-spn-kjpaw_psl.1.0.0.UPF
     MD5 check sum: 34cc42130a09071ebe376fd42eb21491
     Pseudo is Projector augmented-wave + core cor, Zval =  9.0
     Generated using &quot;atomic&quot; code by A. Dal Corso  v.6.2.2
     Shape of augmentation charge: PSQ
     Using radial grid of 1165 points,  6 beta functions with: 
                l(1) =   0
                l(2) =   0
                l(3) =   1
                l(4) =   1
                l(5) =   2
                l(6) =   2
     Q(r) pseudized with 0 coefficients 


     atomic species   valence    mass     pseudopotential
     Co               17.00    58.93300     Co( 1.00)
     O                 6.00    15.99900     O ( 1.00)
     K                 9.00    39.09830     K ( 1.00)

     Starting magnetic structure 
     atomic species   magnetization
     Co              0.300
     O               0.000
     K               0.000

      6 Sym. Ops. (no inversion) found


                                    s                        frac. trans.

      isym =  1     identity                                     

 cryst.   s( 1) = (     1          0          0      )
                  (     0          1          0      )
                  (     0          0          1      )

 cart.    s( 1) = (  1.0000000  0.0000000  0.0000000 )
                  (  0.0000000  1.0000000  0.0000000 )
                  (  0.0000000  0.0000000  1.0000000 )


      isym =  2     120 deg rotation - cryst. axis [0,0,1]       

 cryst.   s( 2) = (     0          1          0      )
                  (    -1         -1          0      )
                  (     0          0          1      )

 cart.    s( 2) = ( -0.5000000 -0.8660254  0.0000000 )
                  (  0.8660254 -0.5000000  0.0000000 )
                  (  0.0000000  0.0000000  1.0000000 )


      isym =  3     120 deg rotation - cryst. axis [0,0,-1]      

 cryst.   s( 3) = (    -1         -1          0      )
                  (     1          0          0      )
                  (     0          0          1      )

 cart.    s( 3) = ( -0.5000000  0.8660254  0.0000000 )
                  ( -0.8660254 -0.5000000  0.0000000 )
                  (  0.0000000  0.0000000  1.0000000 )


      isym =  4     inv. 180 deg rotation - cart. axis [1,0,0]   

 cryst.   s( 4) = (    -1          0          0      )
                  (     1          1          0      )
                  (     0          0          1      )

 cart.    s( 4) = ( -1.0000000  0.0000000  0.0000000 )
                  (  0.0000000  1.0000000  0.0000000 )
                  (  0.0000000  0.0000000  1.0000000 )


      isym =  5     inv. 180 deg rotation - cryst. axis [0,1,0]  

 cryst.   s( 5) = (     1          1          0      )
                  (     0         -1          0      )
                  (     0          0          1      )

 cart.    s( 5) = (  0.5000000  0.8660254  0.0000000 )
                  (  0.8660254 -0.5000000  0.0000000 )
                  (  0.0000000  0.0000000  1.0000000 )


      isym =  6     inv. 180 deg rotation - cryst. axis [1,1,0]  

 cryst.   s( 6) = (     0         -1          0      )
                  (    -1          0          0      )
                  (     0          0          1      )

 cart.    s( 6) = (  0.5000000 -0.8660254  0.0000000 )
                  ( -0.8660254 -0.5000000  0.0000000 )
                  (  0.0000000  0.0000000  1.0000000 )


     point group C_3v (3m)  
     there are  3 classes
     the character table:

       E     2C3   3s_v 
A_1    1.00  1.00  1.00
A_2    1.00  1.00 -1.00
E      2.00 -1.00  0.00

     the symmetry operations in each class and the name of the first element:

     E        1
          identity                                               
     2C3      2    3
          120 deg rotation - cryst. axis [0,0,1]                 
     3s_v     4    5    6
          inv. 180 deg rotation - cart. axis [1,0,0]             

   Cartesian axes

     site n.     atom                  positions (alat units)
         1        Co     tau(   1) = (   0.0000000   0.0000000   0.0000000  )
         2        O      tau(   2) = (  -0.0000000   0.5773503   0.3310345  )
         3        O      tau(   3) = (   0.5000000   0.2886751   2.0482759  )
         4        K      tau(   4) = (   0.0000000   0.0000000   1.2931034  )

   Crystallographic axes

     site n.     atom                  positions (cryst. coord.)
         1        Co     tau(   1) = (  0.0000000  0.0000000  0.0000000  )
         2        O      tau(   2) = (  0.3333333  0.6666667  0.1391304  )
         3        O      tau(   3) = (  0.6666667  0.3333333  0.8608696  )
         4        K      tau(   4) = (  0.0000000  0.0000000  0.5434783  )

     number of k points=    25  Marzari-Vanderbilt smearing, width (Ry)=  0.0200
                       cart. coord. in units 2pi/alat
        k(    1) = (   0.0000000   0.0000000   0.0000000), wk =   0.0052083
        k(    2) = (   0.0000000   0.0000000   0.1400966), wk =   0.0104167
        k(    3) = (   0.0000000   0.1443376   0.0000000), wk =   0.0312500
        k(    4) = (   0.0000000   0.1443376   0.1400966), wk =   0.0312500
        k(    5) = (   0.0000000   0.2886751   0.0000000), wk =   0.0312500
        k(    6) = (   0.0000000   0.2886751   0.1400966), wk =   0.0312500
        k(    7) = (   0.0000000   0.4330127   0.0000000), wk =   0.0312500
        k(    8) = (   0.0000000   0.4330127   0.1400966), wk =   0.0312500
        k(    9) = (   0.0000000  -0.5773503   0.0000000), wk =   0.0156250
        k(   10) = (   0.0000000  -0.5773503   0.1400966), wk =   0.0312500
        k(   11) = (   0.1250000   0.2165064   0.0000000), wk =   0.0312500
        k(   12) = (   0.1250000   0.2165064   0.1400966), wk =   0.0625000
        k(   13) = (   0.1250000   0.3608439   0.0000000), wk =   0.0625000
        k(   14) = (   0.1250000   0.3608439   0.1400966), wk =   0.0625000
        k(   15) = (   0.1250000   0.5051815   0.0000000), wk =   0.0625000
        k(   16) = (   0.1250000   0.5051815   0.1400966), wk =   0.0625000
        k(   17) = (   0.2500000   0.4330127   0.0000000), wk =   0.0312500
        k(   18) = (   0.2500000   0.4330127   0.1400966), wk =   0.0625000
        k(   19) = (   0.2500000   0.5773503   0.0000000), wk =   0.0312500
        k(   20) = (   0.2500000   0.5773503   0.1400966), wk =   0.0625000
        k(   21) = (   0.0000000  -0.1443376   0.1400966), wk =   0.0312500
        k(   22) = (   0.0000000  -0.2886751   0.1400966), wk =   0.0312500
        k(   23) = (   0.0000000  -0.4330127   0.1400966), wk =   0.0312500
        k(   24) = (  -0.1250000  -0.3608439   0.1400966), wk =   0.0625000
        k(   25) = (  -0.1250000  -0.5051815   0.1400966), wk =   0.0625000

                       cryst. coord.
        k(    1) = (   0.0000000   0.0000000   0.0000000), wk =   0.0052083
        k(    2) = (   0.0000000   0.0000000   0.3333333), wk =   0.0104167
        k(    3) = (   0.0000000   0.1250000   0.0000000), wk =   0.0312500
        k(    4) = (   0.0000000   0.1250000   0.3333333), wk =   0.0312500
        k(    5) = (   0.0000000   0.2500000   0.0000000), wk =   0.0312500
        k(    6) = (   0.0000000   0.2500000   0.3333333), wk =   0.0312500
        k(    7) = (   0.0000000   0.3750000   0.0000000), wk =   0.0312500
        k(    8) = (   0.0000000   0.3750000   0.3333333), wk =   0.0312500
        k(    9) = (   0.0000000  -0.5000000   0.0000000), wk =   0.0156250
        k(   10) = (   0.0000000  -0.5000000   0.3333333), wk =   0.0312500
        k(   11) = (   0.1250000   0.1250000   0.0000000), wk =   0.0312500
        k(   12) = (   0.1250000   0.1250000   0.3333333), wk =   0.0625000
        k(   13) = (   0.1250000   0.2500000   0.0000000), wk =   0.0625000
        k(   14) = (   0.1250000   0.2500000   0.3333333), wk =   0.0625000
        k(   15) = (   0.1250000   0.3750000   0.0000000), wk =   0.0625000
        k(   16) = (   0.1250000   0.3750000   0.3333333), wk =   0.0625000
        k(   17) = (   0.2500000   0.2500000   0.0000000), wk =   0.0312500
        k(   18) = (   0.2500000   0.2500000   0.3333333), wk =   0.0625000
        k(   19) = (   0.2500000   0.3750000   0.0000000), wk =   0.0312500
        k(   20) = (   0.2500000   0.3750000   0.3333333), wk =   0.0625000
        k(   21) = (   0.0000000  -0.1250000   0.3333333), wk =   0.0312500
        k(   22) = (   0.0000000  -0.2500000   0.3333333), wk =   0.0312500
        k(   23) = (   0.0000000  -0.3750000   0.3333333), wk =   0.0312500
        k(   24) = (  -0.1250000  -0.2500000   0.3333333), wk =   0.0625000
        k(   25) = (  -0.1250000  -0.3750000   0.3333333), wk =   0.0625000

     Dense  grid:    60133 G-vectors     FFT dimensions: (  40,  40,  96)

     Smooth grid:    21263 G-vectors     FFT dimensions: (  27,  27,  72)

     Dynamical RAM for                 wfc:       1.10 MB

     Dynamical RAM for     wfc (w. buffer):      55.93 MB

     Dynamical RAM for           str. fact:       2.75 MB

     Dynamical RAM for           local pot:       0.00 MB

     Dynamical RAM for          nlocal pot:       2.11 MB

     Dynamical RAM for                qrad:       5.27 MB

     Dynamical RAM for          rho,v,vnew:      12.54 MB

     Dynamical RAM for               rhoin:       4.18 MB

     Dynamical RAM for            rho*nmix:      29.36 MB

     Dynamical RAM for           G-vectors:       3.60 MB

     Dynamical RAM for          h,s,v(r/c):       0.13 MB

     Dynamical RAM for          <psi|beta>:       0.02 MB

     Dynamical RAM for                 psi:       2.19 MB

     Dynamical RAM for                hpsi:       2.19 MB

     Dynamical RAM for                spsi:       2.19 MB

     Dynamical RAM for      wfcinit/wfcrot:       2.21 MB

     Dynamical RAM for           addusdens:     173.42 MB

     Dynamical RAM for          addusforce:     175.27 MB

     Estimated static dynamical RAM per process >      97.09 MB

     Estimated max dynamical RAM per process >     301.72 MB

     Check: negative core charge=   -0.000008
     Generating pointlists ...
     new r_m :   0.2745 (alat units)  1.5045 (a.u.) for type    1
     new r_m :   0.2745 (alat units)  1.5045 (a.u.) for type    2
     new r_m :   0.3921 (alat units)  2.1489 (a.u.) for type    3

     Initial potential from superposition of free atoms

     starting charge      37.9809, renormalised to      38.0000
     Starting wfcs are   26 randomized atomic wfcs +    1 random wfcs
     Checking if some PAW data can be deallocated... 

     total cpu time spent up to now is        4.0 secs

     Self-consistent Calculation
[tb_dev] Currently allocated     6.58E-01 Mbytes, locked:    0 /   6
[tb_pin] Currently allocated     0.00E+00 Mbytes, locked:    0 /   0

     iteration #  1     ecut=    60.00 Ry     beta= 0.30
     Davidson diagonalization with overlap

---- Real-time Memory Report at c_bands before calling an iterative solver
           670 MiB given to the printing process from OS
             0 MiB allocation reported by mallinfo(arena+hblkhd)
       1349674 MiB available memory on the node where the printing process lives
     GPU memory used/free/total (MiB): 1002 / 80148 / 81151
------------------
     ethr =  1.00E-02,  avg # of iterations =  9.0

     total cpu time spent up to now is        6.3 secs

     total energy              =    -572.84942854 Ry
     estimated scf accuracy    <       1.51800605 Ry

     total magnetization       =     4.00 Bohr mag/cell
     absolute magnetization    =     4.00 Bohr mag/cell
[tb_dev] Currently allocated     3.05E-05 Mbytes, locked:    0 /   2
[tb_pin] Currently allocated     0.00E+00 Mbytes, locked:    0 /   0

     iteration #  2     ecut=    60.00 Ry     beta= 0.30
     Davidson diagonalization with overlap

---- Real-time Memory Report at c_bands before calling an iterative solver
           712 MiB given to the printing process from OS
             0 MiB allocation reported by mallinfo(arena+hblkhd)
       1346304 MiB available memory on the node where the printing process lives
     GPU memory used/free/total (MiB): 1018 / 80132 / 81151
------------------
     ethr =  3.99E-03,  avg # of iterations =  2.0

     total cpu time spent up to now is        7.6 secs

     total energy              =    -572.79663323 Ry
     estimated scf accuracy    <       0.53555906 Ry

     total magnetization       =     4.04 Bohr mag/cell
     absolute magnetization    =     4.04 Bohr mag/cell
[tb_dev] Currently allocated     3.05E-05 Mbytes, locked:    0 /   2
[tb_pin] Currently allocated     0.00E+00 Mbytes, locked:    0 /   0

     iteration #  3     ecut=    60.00 Ry     beta= 0.30
     Davidson diagonalization with overlap

---- Real-time Memory Report at c_bands before calling an iterative solver
           712 MiB given to the printing process from OS
             0 MiB allocation reported by mallinfo(arena+hblkhd)
       1343938 MiB available memory on the node where the printing process lives
     GPU memory used/free/total (MiB): 1018 / 80132 / 81151
------------------
     ethr =  1.41E-03,  avg # of iterations =  3.3

     total cpu time spent up to now is        9.2 secs

     total energy              =    -573.04850971 Ry
     estimated scf accuracy    <       1.11381505 Ry

     total magnetization       =     1.51 Bohr mag/cell
     absolute magnetization    =     1.63 Bohr mag/cell
[tb_dev] Currently allocated     3.05E-05 Mbytes, locked:    0 /   2
[tb_pin] Currently allocated     0.00E+00 Mbytes, locked:    0 /   0

     iteration #  4     ecut=    60.00 Ry     beta= 0.30
     Davidson diagonalization with overlap

---- Real-time Memory Report at c_bands before calling an iterative solver
           714 MiB given to the printing process from OS
             0 MiB allocation reported by mallinfo(arena+hblkhd)
       1361910 MiB available memory on the node where the printing process lives
     GPU memory used/free/total (MiB): 1018 / 80132 / 81151
------------------
     ethr =  1.41E-03,  avg # of iterations =  1.5

     total cpu time spent up to now is       10.5 secs

     total energy              =    -573.07519166 Ry
     estimated scf accuracy    <       1.90811447 Ry

     total magnetization       =     1.08 Bohr mag/cell
     absolute magnetization    =     1.32 Bohr mag/cell
[tb_dev] Currently allocated     3.05E-05 Mbytes, locked:    0 /   2
[tb_pin] Currently allocated     0.00E+00 Mbytes, locked:    0 /   0

     iteration #  5     ecut=    60.00 Ry     beta= 0.30
     Davidson diagonalization with overlap

---- Real-time Memory Report at c_bands before calling an iterative solver
           715 MiB given to the printing process from OS
             0 MiB allocation reported by mallinfo(arena+hblkhd)
       1360354 MiB available memory on the node where the printing process lives
     GPU memory used/free/total (MiB): 1018 / 80132 / 81151
------------------
     ethr =  1.41E-03,  avg # of iterations =  1.2

     total cpu time spent up to now is       11.8 secs

     total energy              =    -572.95926630 Ry
     estimated scf accuracy    <       1.66239734 Ry

     total magnetization       =     0.77 Bohr mag/cell
     absolute magnetization    =     1.18 Bohr mag/cell
[tb_dev] Currently allocated     3.05E-05 Mbytes, locked:    0 /   2
[tb_pin] Currently allocated     0.00E+00 Mbytes, locked:    0 /   0

     iteration #  6     ecut=    60.00 Ry     beta= 0.30
     Davidson diagonalization with overlap

---- Real-time Memory Report at c_bands before calling an iterative solver
           716 MiB given to the printing process from OS
             0 MiB allocation reported by mallinfo(arena+hblkhd)
       1359248 MiB available memory on the node where the printing process lives
     GPU memory used/free/total (MiB): 1018 / 80132 / 81151
------------------
     ethr =  1.41E-03,  avg # of iterations =  1.5

     total cpu time spent up to now is       13.1 secs

     total energy              =    -573.00013528 Ry
     estimated scf accuracy    <       0.42720036 Ry

     total magnetization       =     0.41 Bohr mag/cell
     absolute magnetization    =     0.90 Bohr mag/cell
[tb_dev] Currently allocated     3.05E-05 Mbytes, locked:    0 /   2
[tb_pin] Currently allocated     0.00E+00 Mbytes, locked:    0 /   0

     iteration #  7     ecut=    60.00 Ry     beta= 0.30
     Davidson diagonalization with overlap

---- Real-time Memory Report at c_bands before calling an iterative solver
           717 MiB given to the printing process from OS
             0 MiB allocation reported by mallinfo(arena+hblkhd)
       1357909 MiB available memory on the node where the printing process lives
     GPU memory used/free/total (MiB): 1018 / 80132 / 81151
------------------
     ethr =  1.12E-03,  avg # of iterations =  1.8

     total cpu time spent up to now is       14.4 secs

     total energy              =    -573.03144727 Ry
     estimated scf accuracy    <       0.14387439 Ry

     total magnetization       =     0.02 Bohr mag/cell
     absolute magnetization    =     0.48 Bohr mag/cell
[tb_dev] Currently allocated     3.05E-05 Mbytes, locked:    0 /   2
[tb_pin] Currently allocated     0.00E+00 Mbytes, locked:    0 /   0

     iteration #  8     ecut=    60.00 Ry     beta= 0.30
     Davidson diagonalization with overlap

---- Real-time Memory Report at c_bands before calling an iterative solver
           718 MiB given to the printing process from OS
             0 MiB allocation reported by mallinfo(arena+hblkhd)
       1356954 MiB available memory on the node where the printing process lives
     GPU memory used/free/total (MiB): 1018 / 80132 / 81151
------------------
     ethr =  3.79E-04,  avg # of iterations =  4.7

     total cpu time spent up to now is       16.1 secs

     total energy              =    -573.00349846 Ry
     estimated scf accuracy    <       0.09927761 Ry

     total magnetization       =     0.00 Bohr mag/cell
     absolute magnetization    =     0.17 Bohr mag/cell
[tb_dev] Currently allocated     3.05E-05 Mbytes, locked:    0 /   2
[tb_pin] Currently allocated     0.00E+00 Mbytes, locked:    0 /   0

     iteration #  9     ecut=    60.00 Ry     beta= 0.30
     Davidson diagonalization with overlap

---- Real-time Memory Report at c_bands before calling an iterative solver
           720 MiB given to the printing process from OS
             0 MiB allocation reported by mallinfo(arena+hblkhd)
       1356046 MiB available memory on the node where the printing process lives
     GPU memory used/free/total (MiB): 1018 / 80132 / 81151
------------------
     c_bands:  1 eigenvalues not converged
     ethr =  2.61E-04,  avg # of iterations =  3.5

     total cpu time spent up to now is       17.6 secs

     total energy              =    -573.02562601 Ry
     estimated scf accuracy    <       0.01283071 Ry

     total magnetization       =    -0.09 Bohr mag/cell
     absolute magnetization    =     0.14 Bohr mag/cell
[tb_dev] Currently allocated     3.05E-05 Mbytes, locked:    0 /   2
[tb_pin] Currently allocated     0.00E+00 Mbytes, locked:    0 /   0

     iteration # 10     ecut=    60.00 Ry     beta= 0.30
     Davidson diagonalization with overlap

---- Real-time Memory Report at c_bands before calling an iterative solver
           721 MiB given to the printing process from OS
             0 MiB allocation reported by mallinfo(arena+hblkhd)
       1354621 MiB available memory on the node where the printing process lives
     GPU memory used/free/total (MiB): 1018 / 80132 / 81151
------------------
     c_bands:  1 eigenvalues not converged
     c_bands:  1 eigenvalues not converged
     c_bands:  1 eigenvalues not converged
     c_bands:  1 eigenvalues not converged
     ethr =  3.38E-05,  avg # of iterations = 11.3
     Minimization algorithm failed to find Fermi energy: reverting to bisection
     Possible cause: smearing is larger than the electronic band-gap.

     total cpu time spent up to now is       20.1 secs

     total energy              =    -573.02298151 Ry
     estimated scf accuracy    <       0.00665189 Ry

     total magnetization       =    -0.15 Bohr mag/cell
     absolute magnetization    =     0.16 Bohr mag/cell
[tb_dev] Currently allocated     3.05E-05 Mbytes, locked:    0 /   2
[tb_pin] Currently allocated     0.00E+00 Mbytes, locked:    0 /   0

     iteration # 11     ecut=    60.00 Ry     beta= 0.30
     Davidson diagonalization with overlap

---- Real-time Memory Report at c_bands before calling an iterative solver
           722 MiB given to the printing process from OS
             0 MiB allocation reported by mallinfo(arena+hblkhd)
       1353541 MiB available memory on the node where the printing process lives
     GPU memory used/free/total (MiB): 1018 / 80132 / 81151
------------------
     c_bands:  1 eigenvalues not converged
     ethr =  1.75E-05,  avg # of iterations =  5.2

     total cpu time spent up to now is       21.9 secs

     total energy              =    -573.02116469 Ry
     estimated scf accuracy    <       0.03443444 Ry

     total magnetization       =    -0.10 Bohr mag/cell
     absolute magnetization    =     0.24 Bohr mag/cell
[tb_dev] Currently allocated     3.05E-05 Mbytes, locked:    0 /   2
[tb_pin] Currently allocated     0.00E+00 Mbytes, locked:    0 /   0

     iteration # 12     ecut=    60.00 Ry     beta= 0.30
     Davidson diagonalization with overlap

---- Real-time Memory Report at c_bands before calling an iterative solver
           723 MiB given to the printing process from OS
             0 MiB allocation reported by mallinfo(arena+hblkhd)
       1350340 MiB available memory on the node where the printing process lives
     GPU memory used/free/total (MiB): 1018 / 80132 / 81151
------------------
     ethr =  1.75E-05,  avg # of iterations =  3.1
     Minimization algorithm failed to find Fermi energy: reverting to bisection
     Possible cause: smearing is larger than the electronic band-gap.

     total cpu time spent up to now is       23.4 secs

     total energy              =    -573.02831701 Ry
     estimated scf accuracy    <       0.00902396 Ry

     total magnetization       =    -0.00 Bohr mag/cell
     absolute magnetization    =     0.04 Bohr mag/cell
[tb_dev] Currently allocated     3.05E-05 Mbytes, locked:    0 /   2
[tb_pin] Currently allocated     0.00E+00 Mbytes, locked:    0 /   0

     iteration # 13     ecut=    60.00 Ry     beta= 0.30
     Davidson diagonalization with overlap

---- Real-time Memory Report at c_bands before calling an iterative solver
           723 MiB given to the printing process from OS
             0 MiB allocation reported by mallinfo(arena+hblkhd)
       1348265 MiB available memory on the node where the printing process lives
     GPU memory used/free/total (MiB): 1018 / 80132 / 81151
------------------
     ethr =  1.75E-05,  avg # of iterations =  1.0
     Minimization algorithm failed to find Fermi energy: reverting to bisection
     Possible cause: smearing is larger than the electronic band-gap.

     total cpu time spent up to now is       24.7 secs

     total energy              =    -573.02834828 Ry
     estimated scf accuracy    <       0.00315328 Ry

     total magnetization       =    -0.07 Bohr mag/cell
     absolute magnetization    =     0.07 Bohr mag/cell
[tb_dev] Currently allocated     3.05E-05 Mbytes, locked:    0 /   2
[tb_pin] Currently allocated     0.00E+00 Mbytes, locked:    0 /   0

     iteration # 14     ecut=    60.00 Ry     beta= 0.30
     Davidson diagonalization with overlap

---- Real-time Memory Report at c_bands before calling an iterative solver
           723 MiB given to the printing process from OS
             0 MiB allocation reported by mallinfo(arena+hblkhd)
       1346031 MiB available memory on the node where the printing process lives
     GPU memory used/free/total (MiB): 1018 / 80132 / 81151
------------------
     ethr =  8.30E-06,  avg # of iterations =  1.5
     Minimization algorithm failed to find Fermi energy: reverting to bisection
     Possible cause: smearing is larger than the electronic band-gap.

     total cpu time spent up to now is       26.1 secs

     total energy              =    -573.02839053 Ry
     estimated scf accuracy    <       0.00119081 Ry

     total magnetization       =    -0.11 Bohr mag/cell
     absolute magnetization    =     0.11 Bohr mag/cell
[tb_dev] Currently allocated     3.05E-05 Mbytes, locked:    0 /   2
[tb_pin] Currently allocated     0.00E+00 Mbytes, locked:    0 /   0

     iteration # 15     ecut=    60.00 Ry     beta= 0.30
     Davidson diagonalization with overlap

---- Real-time Memory Report at c_bands before calling an iterative solver
           724 MiB given to the printing process from OS
             0 MiB allocation reported by mallinfo(arena+hblkhd)
       1343561 MiB available memory on the node where the printing process lives
     GPU memory used/free/total (MiB): 1018 / 80132 / 81151
------------------
     c_bands:  1 eigenvalues not converged
     ethr =  3.13E-06,  avg # of iterations =  2.6
     Minimization algorithm failed to find Fermi energy: reverting to bisection
     Possible cause: smearing is larger than the electronic band-gap.

     total cpu time spent up to now is       27.5 secs

     total energy              =    -573.02834221 Ry
     estimated scf accuracy    <       0.00067878 Ry

     total magnetization       =    -0.14 Bohr mag/cell
     absolute magnetization    =     0.14 Bohr mag/cell
[tb_dev] Currently allocated     3.05E-05 Mbytes, locked:    0 /   2
[tb_pin] Currently allocated     0.00E+00 Mbytes, locked:    0 /   0

     iteration # 16     ecut=    60.00 Ry     beta= 0.30
     Davidson diagonalization with overlap

---- Real-time Memory Report at c_bands before calling an iterative solver
           724 MiB given to the printing process from OS
             0 MiB allocation reported by mallinfo(arena+hblkhd)
       1340290 MiB available memory on the node where the printing process lives
     GPU memory used/free/total (MiB): 1018 / 80132 / 81151
------------------
     ethr =  1.79E-06,  avg # of iterations =  2.2
     Minimization algorithm failed to find Fermi energy: reverting to bisection
     Possible cause: smearing is larger than the electronic band-gap.

     total cpu time spent up to now is       28.9 secs

     total energy              =    -573.02839645 Ry
     estimated scf accuracy    <       0.00011761 Ry

     total magnetization       =    -0.17 Bohr mag/cell
     absolute magnetization    =     0.17 Bohr mag/cell
[tb_dev] Currently allocated     3.05E-05 Mbytes, locked:    0 /   2
[tb_pin] Currently allocated     0.00E+00 Mbytes, locked:    0 /   0

     iteration # 17     ecut=    60.00 Ry     beta= 0.30
     Davidson diagonalization with overlap

---- Real-time Memory Report at c_bands before calling an iterative solver
           724 MiB given to the printing process from OS
             0 MiB allocation reported by mallinfo(arena+hblkhd)
       1360280 MiB available memory on the node where the printing process lives
     GPU memory used/free/total (MiB): 1018 / 80132 / 81151
------------------
     c_bands:  1 eigenvalues not converged
     ethr =  3.09E-07,  avg # of iterations =  4.5
     Minimization algorithm failed to find Fermi energy: reverting to bisection
     Possible cause: smearing is larger than the electronic band-gap.

     total cpu time spent up to now is       30.6 secs

     total energy              =    -573.02843724 Ry
     estimated scf accuracy    <       0.00001412 Ry

     total magnetization       =    -0.18 Bohr mag/cell
     absolute magnetization    =     0.19 Bohr mag/cell
[tb_dev] Currently allocated     3.05E-05 Mbytes, locked:    0 /   2
[tb_pin] Currently allocated     0.00E+00 Mbytes, locked:    0 /   0

     iteration # 18     ecut=    60.00 Ry     beta= 0.30
     Davidson diagonalization with overlap

---- Real-time Memory Report at c_bands before calling an iterative solver
           724 MiB given to the printing process from OS
             0 MiB allocation reported by mallinfo(arena+hblkhd)
       1359132 MiB available memory on the node where the printing process lives
     GPU memory used/free/total (MiB): 1018 / 80132 / 81151
------------------
     c_bands:  1 eigenvalues not converged
     c_bands:  1 eigenvalues not converged
     ethr =  3.71E-08,  avg # of iterations =  7.4
     Minimization algorithm failed to find Fermi energy: reverting to bisection
     Possible cause: smearing is larger than the electronic band-gap.

     total cpu time spent up to now is       32.7 secs

     total energy              =    -573.02844824 Ry
     estimated scf accuracy    <       0.00003656 Ry

     total magnetization       =    -0.18 Bohr mag/cell
     absolute magnetization    =     0.19 Bohr mag/cell
[tb_dev] Currently allocated     3.05E-05 Mbytes, locked:    0 /   2
[tb_pin] Currently allocated     0.00E+00 Mbytes, locked:    0 /   0

     iteration # 19     ecut=    60.00 Ry     beta= 0.30
     Davidson diagonalization with overlap

---- Real-time Memory Report at c_bands before calling an iterative solver
           724 MiB given to the printing process from OS
             0 MiB allocation reported by mallinfo(arena+hblkhd)
       1357347 MiB available memory on the node where the printing process lives
     GPU memory used/free/total (MiB): 1018 / 80132 / 81151
------------------
     ethr =  3.71E-08,  avg # of iterations =  1.4
     Minimization algorithm failed to find Fermi energy: reverting to bisection
     Possible cause: smearing is larger than the electronic band-gap.

     total cpu time spent up to now is       34.0 secs

     total energy              =    -573.02845039 Ry
     estimated scf accuracy    <       0.00000901 Ry

     total magnetization       =    -0.19 Bohr mag/cell
     absolute magnetization    =     0.19 Bohr mag/cell
[tb_dev] Currently allocated     3.05E-05 Mbytes, locked:    0 /   2
[tb_pin] Currently allocated     0.00E+00 Mbytes, locked:    0 /   0

     iteration # 20     ecut=    60.00 Ry     beta= 0.30
     Davidson diagonalization with overlap

---- Real-time Memory Report at c_bands before calling an iterative solver
           724 MiB given to the printing process from OS
             0 MiB allocation reported by mallinfo(arena+hblkhd)
       1356106 MiB available memory on the node where the printing process lives
     GPU memory used/free/total (MiB): 1018 / 80132 / 81151
------------------
     ethr =  2.37E-08,  avg # of iterations =  1.5
     Minimization algorithm failed to find Fermi energy: reverting to bisection
     Possible cause: smearing is larger than the electronic band-gap.

     total cpu time spent up to now is       35.3 secs

     total energy              =    -573.02845123 Ry
     estimated scf accuracy    <       0.00000241 Ry

     total magnetization       =    -0.19 Bohr mag/cell
     absolute magnetization    =     0.19 Bohr mag/cell
[tb_dev] Currently allocated     3.05E-05 Mbytes, locked:    0 /   2
[tb_pin] Currently allocated     0.00E+00 Mbytes, locked:    0 /   0

     iteration # 21     ecut=    60.00 Ry     beta= 0.30
     Davidson diagonalization with overlap

---- Real-time Memory Report at c_bands before calling an iterative solver
           724 MiB given to the printing process from OS
             0 MiB allocation reported by mallinfo(arena+hblkhd)
       1355284 MiB available memory on the node where the printing process lives
     GPU memory used/free/total (MiB): 1018 / 80132 / 81151
------------------
     ethr =  6.34E-09,  avg # of iterations =  3.3
     Minimization algorithm failed to find Fermi energy: reverting to bisection
     Possible cause: smearing is larger than the electronic band-gap.

     total cpu time spent up to now is       36.8 secs

     total energy              =    -573.02845198 Ry
     estimated scf accuracy    <       0.00000029 Ry

     total magnetization       =    -0.19 Bohr mag/cell
     absolute magnetization    =     0.20 Bohr mag/cell
[tb_dev] Currently allocated     3.05E-05 Mbytes, locked:    0 /   2
[tb_pin] Currently allocated     0.00E+00 Mbytes, locked:    0 /   0

     iteration # 22     ecut=    60.00 Ry     beta= 0.30
     Davidson diagonalization with overlap

---- Real-time Memory Report at c_bands before calling an iterative solver
           724 MiB given to the printing process from OS
             0 MiB allocation reported by mallinfo(arena+hblkhd)
       1354049 MiB available memory on the node where the printing process lives
     GPU memory used/free/total (MiB): 1018 / 80132 / 81151
------------------
     ethr =  7.74E-10,  avg # of iterations =  7.1
     Minimization algorithm failed to find Fermi energy: reverting to bisection
     Possible cause: smearing is larger than the electronic band-gap.

     total cpu time spent up to now is       38.9 secs

     total energy              =    -573.02845228 Ry
     estimated scf accuracy    <       0.00000012 Ry

     total magnetization       =    -0.19 Bohr mag/cell
     absolute magnetization    =     0.20 Bohr mag/cell
[tb_dev] Currently allocated     3.05E-05 Mbytes, locked:    0 /   2
[tb_pin] Currently allocated     0.00E+00 Mbytes, locked:    0 /   0

     iteration # 23     ecut=    60.00 Ry     beta= 0.30
     Davidson diagonalization with overlap

---- Real-time Memory Report at c_bands before calling an iterative solver
           725 MiB given to the printing process from OS
             0 MiB allocation reported by mallinfo(arena+hblkhd)
       1351742 MiB available memory on the node where the printing process lives
     GPU memory used/free/total (MiB): 1018 / 80132 / 81151
------------------
     ethr =  3.12E-10,  avg # of iterations =  1.8
     Minimization algorithm failed to find Fermi energy: reverting to bisection
     Possible cause: smearing is larger than the electronic band-gap.
 
     Magnetic moment per site  (integrated on atomic sphere of radius R)
     atom   1 (R=0.275)  charge= 14.1710  magn= -0.1552
     atom   2 (R=0.275)  charge=  5.2590  magn= -0.0100
     atom   3 (R=0.275)  charge=  5.3014  magn= -0.0099
     atom   4 (R=0.392)  charge=  7.6062  magn=  0.0004

     total cpu time spent up to now is       40.3 secs

     End of self-consistent calculation

 ------ SPIN UP ------------


          k = 0.0000 0.0000 0.0000 (  2625 PWs)   bands (ev):

   -84.1123 -47.3835 -47.3835 -47.3177 -23.1386  -9.0123  -7.4404  -5.8080
    -5.1593  -5.1593   4.5607   5.6575   5.6575   8.0628   8.8072   8.8072
     9.8391   9.8391  10.4051  11.4641  13.1482  13.1482  14.3964  15.3382
    15.3383  17.6328  18.8883

     occupation numbers 
     1.0000   1.0000   1.0000   1.0000   1.0000   1.0000   1.0000   1.0000
     1.0000   1.0000   1.0000   1.0000   1.0000   1.0000   1.0000   1.0000
     1.0000   1.0000   1.0503   0.0003   0.0000   0.0000   0.0000   0.0000
     0.0000   0.0000   0.0000

          k = 0.0000 0.0000 0.1401 (  2690 PWs)   bands (ev):

   -84.1124 -47.3837 -47.3837 -47.3181 -23.1385  -9.0589  -7.2873  -5.9351
    -5.1593  -5.1593   4.7692   5.6590   5.6590   7.6019   8.8005   8.8005
     9.8399   9.8399  10.7597  11.3763  13.1635  13.1635  14.7573  15.3255
    15.3255  16.9066  18.8844

     occupation numbers 
     1.0000   1.0000   1.0000   1.0000   1.0000   1.0000   1.0000   1.0000
     1.0000   1.0000   1.0000   1.0000   1.0000   1.0000   1.0000   1.0000
     1.0000   1.0000   0.8323   0.0018   0.0000   0.0000   0.0000   0.0000
     0.0000   0.0000   0.0000

          k = 0.0000 0.1443 0.0000 (  2661 PWs)   bands (ev):

   -84.1116 -47.3918 -47.3856 -47.3167 -23.0519  -8.8499  -7.3870  -5.7927
    -5.5858  -5.2498   4.7824   5.4008   5.7501   7.7910   8.3585   8.3712
    10.0583  10.2072  10.6764  11.8797  12.7065  13.0563  14.6893  14.8356
    15.8814  16.9458  19.2629

     occupation numbers 
     1.0000   1.0000   1.0000   1.0000   1.0000   1.0000   1.0000   1.0000
     1.0000   1.0000   1.0000   1.0000   1.0000   1.0000   1.0000   1.0000
     1.0007   1.0067   0.9931   0.0000   0.0000   0.0000   0.0000   0.0000
     0.0000   0.0000   0.0000

          k = 0.0000 0.1443 0.1401 (  2670 PWs)   bands (ev):

   -84.1116 -47.3919 -47.3856 -47.3167 -23.0518  -8.8920  -7.2598  -5.8937
    -5.5842  -5.2498   4.9370   5.3586   5.7522   7.8179   8.0927   8.3533
    10.0481  10.2061  10.8928  11.8092  12.7050  13.0649  14.6987  15.0287
    15.8797  16.7882  18.8260

     occupation numbers 
     1.0000   1.0000   1.0000   1.0000   1.0000   1.0000   1.0000   1.0000
     1.0000   1.0000   1.0000   1.0000   1.0000   1.0000   1.0000   1.0000
     1.0006   1.0066   0.4768   0.0000   0.0000   0.0000   0.0000   0.0000
     0.0000   0.0000   0.0000

          k = 0.0000 0.2887 0.0000 (  2664 PWs)   bands (ev):

   -84.1099 -47.4117 -47.3904 -47.3137 -22.8340  -8.4342  -7.2770  -6.5448
    -5.7160  -5.4602   4.9593   5.3007   5.9683   6.4036   7.7645   8.4694
    10.1323  10.5222  10.8295  12.0759  12.3909  12.9319  14.4152  15.3224
    16.3381  17.3865  18.2972

     occupation numbers 
     1.0000   1.0000   1.0000   1.0000   1.0000   1.0000   1.0000   1.0000
     1.0000   1.0000   1.0000   1.0000   1.0000   1.0000   1.0000   1.0000
     1.0023   1.0826   0.6508   0.0000   0.0000   0.0000   0.0000   0.0000
     0.0000   0.0000   0.0000

          k = 0.0000 0.2887 0.1401 (  2656 PWs)   bands (ev):

   -84.1099 -47.4116 -47.3903 -47.3137 -22.8340  -8.4617  -7.2227  -6.5259
    -5.7662  -5.4602   4.8980   5.3637   5.9717   6.4694   7.7583   8.4156
    10.1405  10.5199  10.8790  11.7688  12.6080  12.9424  14.3725  15.2397
    16.6092  17.3913  18.2846

     occupation numbers 
     1.0000   1.0000   1.0000   1.0000   1.0000   1.0000   1.0000   1.0000
     1.0000   1.0000   1.0000   1.0000   1.0000   1.0000   1.0000   1.0000
     1.0026   1.0824   0.5142   0.0000   0.0000   0.0000   0.0000   0.0000
     0.0000   0.0000   0.0000

          k = 0.0000 0.4330 0.0000 (  2668 PWs)   bands (ev):

   -84.1082 -47.4314 -47.3952 -47.3107 -22.6025  -8.0392  -7.3712  -7.1471
    -5.6604  -5.6362   4.3346   5.3414   6.1444   6.3555   7.4487   7.9661
    10.0294  10.4687  10.7009  11.5762  12.2436  12.9561  14.0139  16.8404
    17.0439  17.9298  19.3748

     occupation numbers 
     1.0000   1.0000   1.0000   1.0000   1.0000   1.0000   1.0000   1.0000
     1.0000   1.0000   1.0000   1.0000   1.0000   1.0000   1.0000   1.0000
     1.0004   1.0715   0.9541   0.0000   0.0000   0.0000   0.0000   0.0000
     0.0000   0.0000   0.0000

          k = 0.0000 0.4330 0.1401 (  2668 PWs)   bands (ev):

   -84.1082 -47.4314 -47.3952 -47.3108 -22.6025  -8.0427  -7.4047  -7.1009
    -5.6604  -5.6464   4.3836   5.2629   6.1508   6.4387   7.4378   7.8578
    10.0874  10.4676  10.6831  11.5110  12.4410  12.9748  13.8740  16.7878
    17.0357  17.8988  19.3786

     occupation numbers 
     1.0000   1.0000   1.0000   1.0000   1.0000   1.0000   1.0000   1.0000
     1.0000   1.0000   1.0000   1.0000   1.0000   1.0000   1.0000   1.0000
     1.0011   1.0712   0.9832   0.0001   0.0000   0.0000   0.0000   0.0000
     0.0000   0.0000   0.0000

          k = 0.0000-0.5774 0.0000 (  2658 PWs)   bands (ev):

   -84.1074 -47.4396 -47.3971 -47.3094 -22.5021  -8.0593  -7.4045  -7.1893
    -5.7406  -5.5967   3.9202   5.4178   6.1850   6.5581   7.3957   7.6838
     9.9085  10.3722  10.6096  11.2624  12.3178  12.9997  13.7706  17.1802
    17.7928  18.1339  20.6265

     occupation numbers 
     1.0000   1.0000   1.0000   1.0000   1.0000   1.0000   1.0000   1.0000
     1.0000   1.0000   1.0000   1.0000   1.0000   1.0000   1.0000   1.0000
     1.0000   1.0394   1.0621   0.0115   0.0000   0.0000   0.0000   0.0000
     0.0000   0.0000   0.0000

          k = 0.0000-0.5774 0.1401 (  2664 PWs)   bands (ev):

   -84.1074 -47.4396 -47.3971 -47.3094 -22.5020  -8.0539  -7.4211  -7.1817
    -5.7406  -5.5930   3.9745   5.3315   6.1915   6.6797   7.3843   7.4905
     9.9714  10.3724  10.6260  11.3030  12.5065  13.0200  13.6284  16.8201
    17.7541  18.1034  21.3281

     occupation numbers 
     1.0000   1.0000   1.0000   1.0000   1.0000   1.0000   1.0000   1.0000
     1.0000   1.0000   1.0000   1.0000   1.0000   1.0000   1.0000   1.0000
     1.0001   1.0395   1.0501   0.0062   0.0000   0.0000   0.0000   0.0000
     0.0000   0.0000   0.0000

          k = 0.1250 0.2165 0.0000 (  2673 PWs)   bands (ev):

   -84.1104 -47.4050 -47.3899 -47.3147 -22.8992  -8.5598  -7.3040  -6.2345
    -5.7354  -5.4574   5.0815   5.1986   5.8570   6.8501   7.6830   8.5528
    10.2116  10.4846  10.8295  12.3546  12.5291  12.9660  13.9429  15.0682
    16.4034  17.1366  18.1862

     occupation numbers 
     1.0000   1.0000   1.0000   1.0000   1.0000   1.0000   1.0000   1.0000
     1.0000   1.0000   1.0000   1.0000   1.0000   1.0000   1.0000   1.0000
     1.0071   1.0759   0.6507   0.0000   0.0000   0.0000   0.0000   0.0000
     0.0000   0.0000   0.0000

          k = 0.1250 0.2165 0.1401 (  2654 PWs)   bands (ev):

   -84.1104 -47.4049 -47.3899 -47.3145 -22.8992  -8.5913  -7.2295  -6.2210
    -5.7970  -5.4582   5.0269   5.2543   5.8574   6.9253   7.6869   8.4947
    10.2082  10.4622  10.8823  12.1052  12.7024  12.9671  13.9478  14.9957
    16.5623  17.1360  18.2009

     occupation numbers 
     1.0000   1.0000   1.0000   1.0000   1.0000   1.0000   1.0000   1.0000
     1.0000   1.0000   1.0000   1.0000   1.0000   1.0000   1.0000   1.0000
     1.0068   1.0695   0.5053   0.0000   0.0000   0.0000   0.0000   0.0000
     0.0000   0.0000   0.0000

          k = 0.1250 0.3608 0.0000 (  2648 PWs)   bands (ev):

   -84.1086 -47.4226 -47.3966 -47.3116 -22.6724  -8.1327  -7.2287  -6.9854
    -5.7819  -5.6563   4.8018   5.2690   6.0487   6.2621   7.1873   8.2495
    10.2324  10.5822  10.7305  12.1791  12.5649  12.7876  14.1855  15.2447
    16.6914  17.4549  19.2306

     occupation numbers 
     1.0000   1.0000   1.0000   1.0000   1.0000   1.0000   1.0000   1.0000
     1.0000   1.0000   1.0000   1.0000   1.0000   1.0000   1.0000   1.0000
     1.0093   1.0757   0.8973   0.0000   0.0000   0.0000   0.0000   0.0000
     0.0000   0.0000   0.0000

          k = 0.1250 0.3608 0.1401 (  2658 PWs)   bands (ev):

   -84.1087 -47.4227 -47.3966 -47.3116 -22.6724  -8.1417  -7.2626  -6.9225
    -5.7816  -5.6772   4.7943   5.2451   6.0376   6.3344   7.1818   8.2545
    10.2433  10.5926  10.7172  12.0179  12.5541  12.8782  14.2016  15.2170
    16.6889  17.5189  19.2405

     occupation numbers 
     1.0000   1.0000   1.0000   1.0000   1.0000   1.0000   1.0000   1.0000
     1.0000   1.0000   1.0000   1.0000   1.0000   1.0000   1.0000   1.0000
     1.0106   1.0714   0.9240   0.0000   0.0000   0.0000   0.0000   0.0000
     0.0000   0.0000   0.0000

          k = 0.1250 0.5052 0.0000 (  2661 PWs)   bands (ev):

   -84.1074 -47.4352 -47.4015 -47.3094 -22.5033  -7.9534  -7.3658  -7.1546
    -5.9951  -5.5921   4.2074   5.2531   6.1762   6.5915   6.9968   7.7364
    10.0809  10.4405  10.6636  11.9004  12.4975  12.7463  13.8946  16.6852
    16.9832  17.3569  20.8528

     occupation numbers 
     1.0000   1.0000   1.0000   1.0000   1.0000   1.0000   1.0000   1.0000
     1.0000   1.0000   1.0000   1.0000   1.0000   1.0000   1.0000   1.0000
     1.0010   1.0625   1.0105   0.0000   0.0000   0.0000   0.0000   0.0000
     0.0000   0.0000   0.0000

          k = 0.1250 0.5052 0.1401 (  2664 PWs)   bands (ev):

   -84.1074 -47.4351 -47.4015 -47.3095 -22.5033  -7.9504  -7.3838  -7.1394
    -5.9954  -5.5928   4.2657   5.2115   6.1669   6.6617   6.9759   7.6058
    10.1294  10.4319  10.6790  11.9190  12.5552  12.6938  13.9517  16.5767
    16.9098  17.3556  20.8534

     occupation numbers 
     1.0000   1.0000   1.0000   1.0000   1.0000   1.0000   1.0000   1.0000
     1.0000   1.0000   1.0000   1.0000   1.0000   1.0000   1.0000   1.0000
     1.0022   1.0596   0.9893   0.0000   0.0000   0.0000   0.0000   0.0000
     0.0000   0.0000   0.0000

          k = 0.2500 0.4330 0.0000 (  2661 PWs)   bands (ev):

   -84.1074 -47.4290 -47.4077 -47.3095 -22.5045  -7.8675  -7.2021  -7.1465
    -6.3263  -5.5875   4.7324   4.9951   5.8893   6.5631   6.8381   7.7918
    10.2269  10.4839  10.7384  12.3608  12.4654  13.4225  14.0895  15.2198
    16.1520  17.2045  21.2063

     occupation numbers 
     1.0000   1.0000   1.0000   1.0000   1.0000   1.0000   1.0000   1.0000
     1.0000   1.0000   1.0000   1.0000   1.0000   1.0000   1.0000   1.0000
     1.0086   1.0757   0.8804   0.0000   0.0000   0.0000   0.0000   0.0000
     0.0000   0.0000   0.0000

          k = 0.2500 0.4330 0.1401 (  2664 PWs)   bands (ev):

   -84.1074 -47.4290 -47.4076 -47.3096 -22.5045  -7.8528  -7.3167  -7.0407
    -6.3305  -5.5894   4.7496   5.0126   5.9122   6.5250   6.7977   7.8109
    10.2210  10.4762  10.7858  12.1758  12.4606  13.4833  14.1932  15.1935
    16.2176  17.1184  21.2810

     occupation numbers 
     1.0000   1.0000   1.0000   1.0000   1.0000   1.0000   1.0000   1.0000
     1.0000   1.0000   1.0000   1.0000   1.0000   1.0000   1.0000   1.0000
     1.0080   1.0736   0.7677   0.0000   0.0000   0.0000   0.0000   0.0000
     0.0000   0.0000   0.0000

          k = 0.2500 0.5774 0.0000 (  2661 PWs)   bands (ev):

   -84.1069 -47.4295 -47.4143 -47.3086 -22.4330  -7.7688  -7.2241  -7.0977
    -6.6197  -5.5541   4.5869   5.0799   5.6242   6.6950   6.9985   7.4245
    10.0563  10.6030  10.7195  12.3777  12.4557  13.5758  14.1789  15.3095
    15.9844  17.3442  21.9456

     occupation numbers 
     1.0000   1.0000   1.0000   1.0000   1.0000   1.0000   1.0000   1.0000
     1.0000   1.0000   1.0000   1.0000   1.0000   1.0000   1.0000   1.0000
     1.0006   1.0661   0.9195   0.0000   0.0000   0.0000   0.0000   0.0000
     0.0000   0.0000   0.0000

          k = 0.2500 0.5774 0.1401 (  2673 PWs)   bands (ev):

   -84.1069 -47.4295 -47.4144 -47.3087 -22.4330  -7.7641  -7.2433  -7.0809
    -6.6235  -5.5544   4.6289   5.1006   5.6703   6.6353   6.9739   7.3535
    10.0741  10.5933  10.7628  12.2444  12.4036  13.5645  14.3689  15.3516
    16.0639  17.2371  22.1325

     occupation numbers 
     1.0000   1.0000   1.0000   1.0000   1.0000   1.0000   1.0000   1.0000
     1.0000   1.0000   1.0000   1.0000   1.0000   1.0000   1.0000   1.0000
     1.0009   1.0711   0.8247   0.0000   0.0000   0.0000   0.0000   0.0000
     0.0000   0.0000   0.0000

          k = 0.0000-0.1443 0.1401 (  2670 PWs)   bands (ev):

   -84.1116 -47.3919 -47.3856 -47.3167 -23.0518  -8.8917  -7.2611  -5.8938
    -5.5827  -5.2498   4.9381   5.3485   5.7508   7.7723   8.1650   8.3571
    10.0411  10.2049  10.8683  11.8510  12.6931  13.0660  14.6994  14.9802
    15.8713  16.7769  18.9208

     occupation numbers 
     1.0000   1.0000   1.0000   1.0000   1.0000   1.0000   1.0000   1.0000
     1.0000   1.0000   1.0000   1.0000   1.0000   1.0000   1.0000   1.0000
     1.0005   1.0065   0.5435   0.0000   0.0000   0.0000   0.0000   0.0000
     0.0000   0.0000   0.0000

          k = 0.0000-0.2887 0.1401 (  2656 PWs)   bands (ev):

   -84.1099 -47.4116 -47.3903 -47.3137 -22.8340  -8.4575  -7.2405  -6.5143
    -5.7619  -5.4602   4.8970   5.2849   5.9683   6.5214   7.7653   8.5178
    10.1149  10.5194  10.8203  11.9069  12.5047  12.9368  14.3544  15.2595
    16.3735  17.3844  18.2900

     occupation numbers 
     1.0000   1.0000   1.0000   1.0000   1.0000   1.0000   1.0000   1.0000
     1.0000   1.0000   1.0000   1.0000   1.0000   1.0000   1.0000   1.0000
     1.0017   1.0823   0.6760   0.0000   0.0000   0.0000   0.0000   0.0000
     0.0000   0.0000   0.0000

          k = 0.0000-0.4330 0.1401 (  2668 PWs)   bands (ev):

   -84.1082 -47.4314 -47.3952 -47.3107 -22.6025  -8.0170  -7.4810  -7.0536
    -5.6604  -5.6397   4.3327   5.2689   6.1466   6.4058   7.4451   8.0243
    10.0418  10.4667  10.6856  11.6348  12.2202  12.9687  13.9663  16.5041
    17.0496  17.9048  19.3750

     occupation numbers 
     1.0000   1.0000   1.0000   1.0000   1.0000   1.0000   1.0000   1.0000
     1.0000   1.0000   1.0000   1.0000   1.0000   1.0000   1.0000   1.0000
     1.0005   1.0709   0.9793   0.0000   0.0000   0.0000   0.0000   0.0000
     0.0000   0.0000   0.0000

          k =-0.1250-0.3608 0.1401 (  2658 PWs)   bands (ev):

   -84.1087 -47.4227 -47.3966 -47.3116 -22.6724  -8.1335  -7.2985  -6.8961
    -5.7820  -5.6739   4.7583   5.2393   6.0200   6.3725   7.1764   8.3368
    10.2126  10.5867  10.7226  12.1012  12.5826  12.7097  14.2323  15.2357
    16.5536  17.5062  19.2422

     occupation numbers 
     1.0000   1.0000   1.0000   1.0000   1.0000   1.0000   1.0000   1.0000
     1.0000   1.0000   1.0000   1.0000   1.0000   1.0000   1.0000   1.0000
     1.0072   1.0740   0.9134   0.0000   0.0000   0.0000   0.0000   0.0000
     0.0000   0.0000   0.0000

          k =-0.1250-0.5052 0.1401 (  2664 PWs)   bands (ev):

   -84.1074 -47.4351 -47.4015 -47.3095 -22.5033  -7.9350  -7.4345  -7.1051
    -5.9962  -5.5895   4.2399   5.2233   6.1823   6.5922   6.9817   7.7077
    10.0978  10.4325  10.7003  12.0298  12.3541  12.7254  13.9715  16.5795
    16.9133  17.2606  20.8732

     occupation numbers 
     1.0000   1.0000   1.0000   1.0000   1.0000   1.0000   1.0000   1.0000
     1.0000   1.0000   1.0000   1.0000   1.0000   1.0000   1.0000   1.0000
     1.0013   1.0598   0.9550   0.0000   0.0000   0.0000   0.0000   0.0000
     0.0000   0.0000   0.0000

 ------ SPIN DOWN ----------


          k = 0.0000 0.0000 0.0000 (  2625 PWs)   bands (ev):

   -84.2975 -47.5465 -47.5401 -47.5401 -23.1382  -9.0293  -7.4554  -5.8114
    -5.1591  -5.1591   4.5012   5.6107   5.6107   8.0333   8.7960   8.7960
     9.7049   9.7049  10.2530  11.3549  13.0692  13.0692  14.3841  15.3387
    15.3387  17.6119  18.8878

     occupation numbers 
     1.0000   1.0000   1.0000   1.0000   1.0000   1.0000   1.0000   1.0000
     1.0000   1.0000   1.0000   1.0000   1.0000   1.0000   1.0000   1.0000
     1.0000   1.0000   1.0119   0.0026   0.0000   0.0000   0.0000   0.0000
     0.0000   0.0000   0.0000

          k = 0.0000 0.0000 0.1401 (  2690 PWs)   bands (ev):

   -84.2976 -47.5468 -47.5404 -47.5404 -23.1382  -9.0756  -7.3038  -5.9373
    -5.1591  -5.1591   4.7066   5.6122   5.6122   7.5750   8.7893   8.7893
     9.7056   9.7056  10.5541  11.3237  13.0839  13.0839  14.7433  15.3265
    15.3265  16.8856  18.8837

     occupation numbers 
     1.0000   1.0000   1.0000   1.0000   1.0000   1.0000   1.0000   1.0000
     1.0000   1.0000   1.0000   1.0000   1.0000   1.0000   1.0000   1.0000
     1.0000   1.0000   1.0823   0.0044   0.0000   0.0000   0.0000   0.0000
     0.0000   0.0000   0.0000

          k = 0.0000 0.1443 0.0000 (  2661 PWs)   bands (ev):

   -84.2968 -47.5484 -47.5454 -47.5422 -23.0515  -8.8668  -7.4026  -5.7954
    -5.5857  -5.2495   4.7235   5.3577   5.7052   7.7624   8.3278   8.3424
     9.9295  10.0874  10.4727  11.8302  12.6260  12.9786  14.6838  14.8301
    15.8824  16.9349  19.2470

     occupation numbers 
     1.0000   1.0000   1.0000   1.0000   1.0000   1.0000   1.0000   1.0000
     1.0000   1.0000   1.0000   1.0000   1.0000   1.0000   1.0000   1.0000
     1.0001   1.0011   1.0727   0.0000   0.0000   0.0000   0.0000   0.0000
     0.0000   0.0000   0.0000

          k = 0.0000 0.1443 0.1401 (  2670 PWs)   bands (ev):

   -84.2968 -47.5485 -47.5455 -47.5423 -23.0515  -8.9087  -7.2768  -5.8954
    -5.5840  -5.2496   4.8767   5.3156   5.7072   7.7873   8.0658   8.3227
     9.9176  10.0862  10.6607  11.7899  12.6305  12.9870  14.6983  15.0146
    15.8808  16.7751  18.8128

     occupation numbers 
     1.0000   1.0000   1.0000   1.0000   1.0000   1.0000   1.0000   1.0000
     1.0000   1.0000   1.0000   1.0000   1.0000   1.0000   1.0000   1.0000
     1.0000   1.0011   1.0142   0.0000   0.0000   0.0000   0.0000   0.0000
     0.0000   0.0000   0.0000

          k = 0.0000 0.2887 0.0000 (  2664 PWs)   bands (ev):

   -84.2951 -47.5681 -47.5470 -47.5426 -22.8337  -8.4512  -7.2938  -6.5445
    -5.7177  -5.4599   4.9210   5.2528   5.9277   6.3676   7.7328   8.4411
     9.9842  10.3908  10.6047  11.9998  12.3707  12.8590  14.4064  15.3174
    16.3301  17.3876  18.2958

     occupation numbers 
     1.0000   1.0000   1.0000   1.0000   1.0000   1.0000   1.0000   1.0000
     1.0000   1.0000   1.0000   1.0000   1.0000   1.0000   1.0000   1.0000
     1.0002   1.0455   1.0651   0.0000   0.0000   0.0000   0.0000   0.0000
     0.0000   0.0000   0.0000

          k = 0.0000 0.2887 0.1401 (  2656 PWs)   bands (ev):

   -84.2951 -47.5680 -47.5469 -47.5425 -22.8337  -8.4785  -7.2398  -6.5261
    -5.7673  -5.4599   4.8603   5.3171   5.9311   6.4300   7.7268   8.3879
     9.9903  10.3883  10.6507  11.7081  12.5818  12.8694  14.3636  15.2358
    16.5975  17.3923  18.2834

     occupation numbers 
     1.0000   1.0000   1.0000   1.0000   1.0000   1.0000   1.0000   1.0000
     1.0000   1.0000   1.0000   1.0000   1.0000   1.0000   1.0000   1.0000
     1.0002   1.0446   1.0260   0.0000   0.0000   0.0000   0.0000   0.0000
     0.0000   0.0000   0.0000

          k = 0.0000 0.4330 0.0000 (  2668 PWs)   bands (ev):

   -84.2934 -47.5877 -47.5517 -47.5396 -22.6022  -8.0533  -7.3774  -7.1617
    -5.6601  -5.6366   4.3062   5.3177   6.1060   6.2995   7.4280   7.9354
     9.8455  10.3179  10.4976  11.5630  12.1691  12.8859  13.9936  16.8312
    17.0420  17.9281  19.3756

     occupation numbers 
     1.0000   1.0000   1.0000   1.0000   1.0000   1.0000   1.0000   1.0000
     1.0000   1.0000   1.0000   1.0000   1.0000   1.0000   1.0000   1.0000
     1.0000   1.0242   1.0789   0.0000   0.0000   0.0000   0.0000   0.0000
     0.0000   0.0000   0.0000

          k = 0.0000 0.4330 0.1401 (  2668 PWs)   bands (ev):

   -84.2934 -47.5877 -47.5517 -47.5396 -22.6022  -8.0570  -7.4106  -7.1157
    -5.6601  -5.6465   4.3546   5.2398   6.1124   6.3823   7.4171   7.8265
     9.8982  10.3168  10.4855  11.4930  12.3620  12.9045  13.8653  16.7831
    17.0294  17.8973  19.3794

     occupation numbers 
     1.0000   1.0000   1.0000   1.0000   1.0000   1.0000   1.0000   1.0000
     1.0000   1.0000   1.0000   1.0000   1.0000   1.0000   1.0000   1.0000
     1.0000   1.0239   1.0761   0.0002   0.0000   0.0000   0.0000   0.0000
     0.0000   0.0000   0.0000

          k = 0.0000-0.5774 0.0000 (  2658 PWs)   bands (ev):

   -84.2927 -47.5958 -47.5536 -47.5383 -22.5018  -8.0654  -7.4158  -7.2073
    -5.7402  -5.5965   3.8943   5.4004   6.1460   6.5024   7.3838   7.6543
     9.6966  10.2117  10.4239  11.2559  12.2452  12.9297  13.7408  17.1723
    17.7908  18.1274  20.6148

     occupation numbers 
     1.0000   1.0000   1.0000   1.0000   1.0000   1.0000   1.0000   1.0000
     1.0000   1.0000   1.0000   1.0000   1.0000   1.0000   1.0000   1.0000
     1.0000   1.0071   1.0568   0.0126   0.0000   0.0000   0.0000   0.0000
     0.0000   0.0000   0.0000

          k = 0.0000-0.5774 0.1401 (  2664 PWs)   bands (ev):

   -84.2927 -47.5958 -47.5536 -47.5383 -22.5018  -8.0600  -7.4326  -7.1994
    -5.7403  -5.5928   3.9482   5.3143   6.1525   6.6227   7.3724   7.4604
     9.7518  10.2119  10.4462  11.3020  12.4173  12.9499  13.6131  16.8163
    17.7524  18.0957  21.3144

     occupation numbers 
     1.0000   1.0000   1.0000   1.0000   1.0000   1.0000   1.0000   1.0000
     1.0000   1.0000   1.0000   1.0000   1.0000   1.0000   1.0000   1.0000
     1.0000   1.0071   1.0644   0.0063   0.0000   0.0000   0.0000   0.0000
     0.0000   0.0000   0.0000

          k = 0.1250 0.2165 0.0000 (  2673 PWs)   bands (ev):

   -84.2956 -47.5615 -47.5466 -47.5434 -22.8989  -8.5768  -7.3205  -6.2341
    -5.7375  -5.4571   5.0364   5.1499   5.8157   6.8198   7.6472   8.5257
    10.0588  10.3703  10.5971  12.2736  12.4882  12.9185  13.9429  15.0572
    16.3953  17.1372  18.1843

     occupation numbers 
     1.0000   1.0000   1.0000   1.0000   1.0000   1.0000   1.0000   1.0000
     1.0000   1.0000   1.0000   1.0000   1.0000   1.0000   1.0000   1.0000
     1.0007   1.0388   1.0693   0.0000   0.0000   0.0000   0.0000   0.0000
     0.0000   0.0000   0.0000

          k = 0.1250 0.2165 0.1401 (  2654 PWs)   bands (ev):

   -84.2956 -47.5614 -47.5465 -47.5433 -22.8989  -8.6081  -7.2468  -6.2208
    -5.7984  -5.4579   4.9876   5.2009   5.8160   6.8918   7.6510   8.4680
    10.0537  10.3475  10.6481  12.0411  12.6354  12.9398  13.9476  14.9818
    16.5515  17.1366  18.1991

     occupation numbers 
     1.0000   1.0000   1.0000   1.0000   1.0000   1.0000   1.0000   1.0000
     1.0000   1.0000   1.0000   1.0000   1.0000   1.0000   1.0000   1.0000
     1.0006   1.0320   1.0289   0.0000   0.0000   0.0000   0.0000   0.0000
     0.0000   0.0000   0.0000

          k = 0.1250 0.3608 0.0000 (  2648 PWs)   bands (ev):

   -84.2939 -47.5789 -47.5531 -47.5404 -22.6721  -8.1491  -7.2449  -6.9872
    -5.7815  -5.6572   4.7699   5.2400   6.0056   6.2167   7.1561   8.2208
    10.0546  10.4041  10.5559  12.1017  12.5154  12.7573  14.1739  15.2405
    16.6833  17.4517  19.2299

     occupation numbers 
     1.0000   1.0000   1.0000   1.0000   1.0000   1.0000   1.0000   1.0000
     1.0000   1.0000   1.0000   1.0000   1.0000   1.0000   1.0000   1.0000
     1.0006   1.0500   1.0821   0.0000   0.0000   0.0000   0.0000   0.0000
     0.0000   0.0000   0.0000

          k = 0.1250 0.3608 0.1401 (  2658 PWs)   bands (ev):

   -84.2939 -47.5790 -47.5532 -47.5404 -22.6721  -8.1582  -7.2757  -6.9278
    -5.7813  -5.6777   4.7621   5.2168   5.9968   6.2865   7.1507   8.2250
    10.0622  10.4113  10.5492  11.9498  12.4889  12.8572  14.1889  15.2134
    16.6806  17.5155  19.2400

     occupation numbers 
     1.0000   1.0000   1.0000   1.0000   1.0000   1.0000   1.0000   1.0000
     1.0000   1.0000   1.0000   1.0000   1.0000   1.0000   1.0000   1.0000
     1.0007   1.0525   1.0828   0.0000   0.0000   0.0000   0.0000   0.0000
     0.0000   0.0000   0.0000

          k = 0.1250 0.5052 0.0000 (  2661 PWs)   bands (ev):

   -84.2927 -47.5914 -47.5580 -47.5383 -22.5031  -7.9629  -7.3743  -7.1720
    -5.9947  -5.5920   4.1816   5.2306   6.1404   6.5438   6.9719   7.7066
     9.8431  10.2800  10.5073  11.8741  12.4417  12.6744  13.8745  16.6808
    16.9789  17.3513  20.8475

     occupation numbers 
     1.0000   1.0000   1.0000   1.0000   1.0000   1.0000   1.0000   1.0000
     1.0000   1.0000   1.0000   1.0000   1.0000   1.0000   1.0000   1.0000
     1.0000   1.0163   1.0807   0.0000   0.0000   0.0000   0.0000   0.0000
     0.0000   0.0000   0.0000

          k = 0.1250 0.5052 0.1401 (  2664 PWs)   bands (ev):

   -84.2927 -47.5913 -47.5580 -47.5384 -22.5030  -7.9600  -7.3923  -7.1567
    -5.9950  -5.5927   4.2396   5.1893   6.1320   6.6120   6.9515   7.5758
     9.8826  10.2726  10.5294  11.8986  12.4815  12.6300  13.9364  16.5729
    16.9075  17.3510  20.8477

     occupation numbers 
     1.0000   1.0000   1.0000   1.0000   1.0000   1.0000   1.0000   1.0000
     1.0000   1.0000   1.0000   1.0000   1.0000   1.0000   1.0000   1.0000
     1.0000   1.0150   1.0831   0.0000   0.0000   0.0000   0.0000   0.0000
     0.0000   0.0000   0.0000

          k = 0.2500 0.4330 0.0000 (  2661 PWs)   bands (ev):

   -84.2927 -47.5852 -47.5641 -47.5383 -22.5043  -7.8812  -7.2073  -7.1625
    -6.3261  -5.5875   4.7081   4.9671   5.8655   6.5140   6.8024   7.7620
     9.9603  10.3255  10.6093  12.2825  12.3873  13.4217  14.0798  15.2158
    16.1467  17.1970  21.1998

     occupation numbers 
     1.0000   1.0000   1.0000   1.0000   1.0000   1.0000   1.0000   1.0000
     1.0000   1.0000   1.0000   1.0000   1.0000   1.0000   1.0000   1.0000
     1.0001   1.0261   1.0623   0.0000   0.0000   0.0000   0.0000   0.0000
     0.0000   0.0000   0.0000

          k = 0.2500 0.4330 0.1401 (  2664 PWs)   bands (ev):

   -84.2927 -47.5852 -47.5641 -47.5385 -22.5043  -7.8668  -7.3253  -7.0532
    -6.3302  -5.5893   4.7250   4.9847   5.8886   6.4773   6.7632   7.7791
     9.9542  10.3160  10.6565  12.1055  12.3800  13.4811  14.1809  15.1889
    16.2131  17.1132  21.2750

     occupation numbers 
     1.0000   1.0000   1.0000   1.0000   1.0000   1.0000   1.0000   1.0000
     1.0000   1.0000   1.0000   1.0000   1.0000   1.0000   1.0000   1.0000
     1.0001   1.0238   1.0193   0.0000   0.0000   0.0000   0.0000   0.0000
     0.0000   0.0000   0.0000

          k = 0.2500 0.5774 0.0000 (  2661 PWs)   bands (ev):

   -84.2922 -47.5857 -47.5707 -47.5375 -22.4328  -7.7807  -7.2320  -7.1125
    -6.6202  -5.5537   4.5626   5.0557   5.6013   6.6569   6.9569   7.3969
     9.7720  10.4551  10.5825  12.2995  12.3800  13.5714  14.1708  15.3043
    15.9807  17.3371  21.9396

     occupation numbers 
     1.0000   1.0000   1.0000   1.0000   1.0000   1.0000   1.0000   1.0000
     1.0000   1.0000   1.0000   1.0000   1.0000   1.0000   1.0000   1.0000
     1.0000   1.0673   1.0756   0.0000   0.0000   0.0000   0.0000   0.0000
     0.0000   0.0000   0.0000

          k = 0.2500 0.5774 0.1401 (  2673 PWs)   bands (ev):

   -84.2922 -47.5857 -47.5708 -47.5376 -22.4328  -7.7761  -7.2517  -7.0954
    -6.6239  -5.5540   4.6045   5.0763   5.6478   6.5983   6.9328   7.3250
     9.7871  10.4458  10.6259  12.1722  12.3244  13.5620  14.3577  15.3461
    16.0587  17.2350  22.1239

     occupation numbers 
     1.0000   1.0000   1.0000   1.0000   1.0000   1.0000   1.0000   1.0000
     1.0000   1.0000   1.0000   1.0000   1.0000   1.0000   1.0000   1.0000
     1.0000   1.0643   1.0502   0.0000   0.0000   0.0000   0.0000   0.0000
     0.0000   0.0000   0.0000

          k = 0.0000-0.1443 0.1401 (  2670 PWs)   bands (ev):

   -84.2968 -47.5485 -47.5455 -47.5423 -23.0515  -8.9085  -7.2780  -5.8955
    -5.5826  -5.2496   4.8778   5.3056   5.7059   7.7432   8.1359   8.3266
     9.9132  10.0850  10.6371  11.8308  12.6159  12.9881  14.6984  14.9673
    15.8726  16.7636  18.9085

     occupation numbers 
     1.0000   1.0000   1.0000   1.0000   1.0000   1.0000   1.0000   1.0000
     1.0000   1.0000   1.0000   1.0000   1.0000   1.0000   1.0000   1.0000
     1.0000   1.0011   1.0402   0.0000   0.0000   0.0000   0.0000   0.0000
     0.0000   0.0000   0.0000

          k = 0.0000-0.2887 0.1401 (  2656 PWs)   bands (ev):

   -84.2951 -47.5680 -47.5469 -47.5425 -22.8337  -8.4743  -7.2572  -6.5148
    -5.7630  -5.4599   4.8610   5.2375   5.9277   6.4815   7.7337   8.4889
     9.9670  10.3878  10.5962  11.8403  12.4793  12.8639  14.3443  15.2552
    16.3632  17.3855  18.2885

     occupation numbers 
     1.0000   1.0000   1.0000   1.0000   1.0000   1.0000   1.0000   1.0000
     1.0000   1.0000   1.0000   1.0000   1.0000   1.0000   1.0000   1.0000
     1.0001   1.0445   1.0697   0.0000   0.0000   0.0000   0.0000   0.0000
     0.0000   0.0000   0.0000

          k = 0.0000-0.4330 0.1401 (  2668 PWs)   bands (ev):

   -84.2934 -47.5877 -47.5517 -47.5396 -22.6022  -8.0316  -7.4880  -7.0670
    -5.6601  -5.6400   4.3042   5.2454   6.1083   6.3513   7.4243   7.9902
     9.8510  10.3159  10.4907  11.6282  12.1392  12.8985  13.9465  16.4967
    17.0477  17.9031  19.3758

     occupation numbers 
     1.0000   1.0000   1.0000   1.0000   1.0000   1.0000   1.0000   1.0000
     1.0000   1.0000   1.0000   1.0000   1.0000   1.0000   1.0000   1.0000
     1.0000   1.0237   1.0773   0.0000   0.0000   0.0000   0.0000   0.0000
     0.0000   0.0000   0.0000

          k =-0.1250-0.3608 0.1401 (  2658 PWs)   bands (ev):

   -84.2939 -47.5790 -47.5532 -47.5404 -22.6721  -8.1501  -7.3108  -6.9018
    -5.7816  -5.6744   4.7269   5.2100   5.9785   6.3262   7.1453   8.3064
    10.0306  10.4047  10.5568  12.0281  12.5139  12.6996  14.2166  15.2321
    16.5454  17.5029  19.2419

     occupation numbers 
     1.0000   1.0000   1.0000   1.0000   1.0000   1.0000   1.0000   1.0000
     1.0000   1.0000   1.0000   1.0000   1.0000   1.0000   1.0000   1.0000
     1.0004   1.0502   1.0820   0.0000   0.0000   0.0000   0.0000   0.0000
     0.0000   0.0000   0.0000

          k =-0.1250-0.5052 0.1401 (  2664 PWs)   bands (ev):

   -84.2927 -47.5913 -47.5580 -47.5384 -22.5030  -7.9444  -7.4446  -7.1209
    -5.9958  -5.5894   4.2138   5.2013   6.1469   6.5453   6.9568   7.6757
     9.8540  10.2707  10.5494  12.0236  12.2796  12.6525  13.9527  16.5748
    16.9105  17.2571  20.8684

     occupation numbers 
     1.0000   1.0000   1.0000   1.0000   1.0000   1.0000   1.0000   1.0000
     1.0000   1.0000   1.0000   1.0000   1.0000   1.0000   1.0000   1.0000
     1.0000   1.0147   1.0828   0.0000   0.0000   0.0000   0.0000   0.0000
     0.0000   0.0000   0.0000

     the Fermi energy is    10.9221 ev

!    total energy              =    -573.02845232 Ry
     total all-electron energy =     -4292.139289 Ry
     estimated scf accuracy    <       0.00000008 Ry
     smearing contrib. (-TS)   =       0.00697392 Ry
     internal energy E=F+TS    =    -573.03542625 Ry

     The total energy is F=E-TS. E is the sum of the following terms:
     one-electron contribution =    -362.52371086 Ry
     hartree contribution      =     202.29140914 Ry
     xc contribution           =     -56.86085421 Ry
     ewald contribution        =    -193.76072933 Ry
     one-center paw contrib.   =    -162.18154099 Ry
      -> PAW hartree energy AE =     311.36789165 Ry
      -> PAW hartree energy PS =    -310.00190403 Ry
      -> PAW xc energy AE      =    -217.17349517 Ry
      -> PAW xc energy PS      =      53.62596655 Ry
      -> total E_H with PAW    =     203.65739677 Ry
      -> total E_XC with PAW   =    -220.40838282 Ry

     total magnetization       =    -0.19 Bohr mag/cell
     absolute magnetization    =     0.20 Bohr mag/cell

     convergence has been achieved in  23 iterations

     Forces acting on atoms (cartesian axes, Ry/au):

     atom    1 type  1   force =     0.00000000    0.00000000    0.02739797
     atom    2 type  2   force =    -0.00000000   -0.00000000    0.02583864
     atom    3 type  2   force =     0.00000000    0.00000000   -0.05365298
     atom    4 type  3   force =     0.00000000    0.00000000    0.00041637
     The non-local contrib.  to forces
     atom    1 type  1   force =     0.00000000    0.00000000   -0.03236628
     atom    2 type  2   force =    -0.00000000   -0.00000000   -0.67993237
     atom    3 type  2   force =     0.00000000    0.00000000    0.41167950
     atom    4 type  3   force =     0.00000000    0.00000000   -0.04232694
     The ionic contribution  to forces
     atom    1 type  1   force =     0.00000000   -0.00000000    6.55887697
     atom    2 type  2   force =     0.00000000   -0.00000000   27.68466644
     atom    3 type  2   force =    -0.00000000    0.00000000  -23.39357651
     atom    4 type  3   force =     0.00000000   -0.00000000  -10.84996690
     The local contribution  to forces
     atom    1 type  1   force =    -0.00000000   -0.00000000   -6.49964551
     atom    2 type  2   force =     0.00000001   -0.00000001  -26.98481265
     atom    3 type  2   force =    -0.00000001    0.00000001   22.93168860
     atom    4 type  3   force =    -0.00000000    0.00000000   10.89064710
     The core correction contribution to forces
     atom    1 type  1   force =     0.00000000   -0.00000000   -0.00014847
     atom    2 type  2   force =    -0.00000000    0.00000000    0.00556065
     atom    3 type  2   force =     0.00000000   -0.00000000   -0.00323354
     atom    4 type  3   force =     0.00000000   -0.00000000    0.00223801
     The Hubbard contrib.    to forces
     atom    1 type  1   force =     0.00000000    0.00000000    0.00000000
     atom    2 type  2   force =     0.00000000    0.00000000    0.00000000
     atom    3 type  2   force =     0.00000000    0.00000000    0.00000000
     atom    4 type  3   force =     0.00000000    0.00000000    0.00000000
     The SCF correction term to forces
     atom    1 type  1   force =     0.00000000   -0.00000000    0.00071960
     atom    2 type  2   force =    -0.00000000    0.00000000    0.00039491
     atom    3 type  2   force =     0.00000000   -0.00000000   -0.00017268
     atom    4 type  3   force =     0.00000000   -0.00000000   -0.00013656

     Total force =     0.065552     Total SCF correction =     0.000850

     Writing all to output data dir ./out/pw.save/ :
     XML data file, charge density, pseudopotentials, collected wavefunctions
 
     init_run     :     14.17s CPU      3.49s WALL (       1 calls)
     electrons    :    145.16s CPU     36.24s WALL (       1 calls)
     forces       :      0.64s CPU      0.56s WALL (       1 calls)

     Called by init_run:
     wfcinit      :      0.27s CPU      0.35s WALL (       1 calls)
     wfcinit:atom :      0.04s CPU      0.05s WALL (      50 calls)
     wfcinit:wfcr :      0.17s CPU      0.22s WALL (      50 calls)
     potinit      :     13.28s CPU      2.50s WALL (       1 calls)
     hinit0       :      0.52s CPU      0.51s WALL (       1 calls)

     Called by electrons:
     c_bands      :     14.51s CPU     14.74s WALL (      23 calls)
     sum_band     :      2.86s CPU      2.88s WALL (      23 calls)
     v_of_rho     :      0.36s CPU      0.21s WALL (      24 calls)
     v_h          :      0.26s CPU      0.04s WALL (      24 calls)
     v_xc         :      0.11s CPU      0.18s WALL (      25 calls)
     newd         :      0.74s CPU      0.59s WALL (      24 calls)
                                        0.59s GPU  (      24 calls)
     PAW_pot      :    131.19s CPU     17.94s WALL (      24 calls)
     mix_rho      :      0.63s CPU      0.63s WALL (      23 calls)

     Called by c_bands:
     init_us_2    :      0.93s CPU      0.92s WALL (    2400 calls)
     cegterg      :     12.77s CPU     13.02s WALL (    1150 calls)

     Called by sum_band:
     sum_band:wei :      0.05s CPU      0.05s WALL (      23 calls)
                                        0.05s GPU  (      23 calls)
     sum_band:loo :      1.50s CPU      1.52s WALL (      23 calls)
                                        1.52s GPU  (      23 calls)
     sum_band:buf :      0.17s CPU      0.20s WALL (    1150 calls)
                                        0.18s GPU  (    1150 calls)
     sum_band:ini :      0.43s CPU      0.45s WALL (    1150 calls)
                                        0.44s GPU  (    1150 calls)
     sum_band:cal :      0.04s CPU      0.07s WALL (    1150 calls)
                                        0.05s GPU  (    1150 calls)
     sum_band:bec :      0.24s CPU      0.27s WALL (    1150 calls)
                                        0.25s GPU  (    1150 calls)
     addusdens    :      1.17s CPU      1.18s WALL (      23 calls)
                                        1.18s GPU  (      23 calls)
     addusd:skk   :      0.00s CPU      0.00s WALL (      69 calls)
                                        0.00s GPU  (      69 calls)

     Called by *egterg:
     cdiaghg      :      4.48s CPU      4.65s WALL (    5278 calls)
                                        4.59s GPU  (    5278 calls)
     cegterg:over :      0.92s CPU      0.97s WALL (    4128 calls)
     cegterg:upda :      0.71s CPU      0.72s WALL (    4128 calls)
     cegterg:last :      0.13s CPU      0.13s WALL (    2154 calls)
     h_psi        :      4.50s CPU      4.69s WALL (    5328 calls)
                                        4.63s GPU  (    5328 calls)
     s_psi        :      0.79s CPU      0.83s WALL (    5328 calls)
     g_psi        :      0.02s CPU      0.10s WALL (    4128 calls)
                                        0.05s GPU  (    4128 calls)

     Called by h_psi:
     h_psi:calbec :      0.16s CPU      0.29s WALL (    5328 calls)
                                        0.23s GPU  (    5328 calls)
     vloc_psi     :      3.09s CPU      3.19s WALL (    5328 calls)
                                        3.12s GPU  (    5328 calls)
     add_vuspsi   :      0.72s CPU      0.85s WALL (    5328 calls)
                                        0.79s GPU  (    5328 calls)

     General routines
     calbec       :      0.17s CPU      0.20s WALL (    6678 calls)
     fft          :      3.42s CPU      0.88s WALL (     613 calls)
                                        0.02s GPU  (     565 calls)
     ffts         :      4.50s CPU      0.80s WALL (     822 calls)
                                        0.02s GPU  (     774 calls)
     fftw         :      0.28s CPU      1.04s WALL (   17660 calls)
                                        0.85s GPU  (   17660 calls)
     interpolate  :      8.06s CPU      1.66s WALL (      48 calls)
 
     Parallel routines

     PAW routines
     PAW_pot      :    131.19s CPU     17.94s WALL (      24 calls)
     PAW_symme    :      0.01s CPU      0.01s WALL (      47 calls)
 
     PWSCF        :   2m40.94s CPU     40.90s WALL

 
   This run was terminated on:   5:37:44  12Jul2026            

=------------------------------------------------------------------------------=
   JOB DONE.
=------------------------------------------------------------------------------=
Warning: ieee_divide_by_zero is signaling
Warning: ieee_inexact is signaling
FORTRAN STOP
