
     Program PWSCF v.7.3.1 starts on 12Jul2026 at  5:38:35 

     This program is part of the open-source Quantum ESPRESSO suite
     for quantum simulation of materials; please cite
         "P. Giannozzi et al., J. Phys.:Condens. Matter 21 395502 (2009);
         "P. Giannozzi et al., J. Phys.:Condens. Matter 29 465901 (2017);
         "P. Giannozzi et al., J. Chem. Phys. 152 154105 (2020);
          URL http://www.quantum-espresso.org", 
     in publications or presentations arising from this work. More details at
     http://www.quantum-espresso.org/quote

     Parallel version (MPI & OpenMP), running on      14 processor cores
     Number of MPI processes:                 1
     Threads/MPI process:                    14

     MPI processes distributed on     1 nodes
     1353334 MiB available memory on the printing compute node when the environment starts
 
     Reading input from pw.in

     Current dimensions of program PWSCF are:
     Max number of different atomic species (ntypx) = 10
     Max number of k-points (npk) =  40000
     Max angular momentum in pseudopotentials (lmaxx) =  4
     file Co.pbe-spn-kjpaw_psl.0.3.1.UPF: wavefunction(s)  3P 3D renormalized
     file O.pbe-n-kjpaw_psl.1.0.0.UPF: wavefunction(s)  2S 2P renormalized
     file K.pbe-spn-kjpaw_psl.1.0.0.UPF: wavefunction(s)  3S renormalized
 
     Subspace diagonalization in iterative solution of the eigenvalue problem:
     a serial algorithm will be used

 
     G-vector sticks info
     --------------------
     sticks:   dense  smooth     PW     G-vecs:    dense   smooth      PW
     Sum        1003     499    151                73353    26017    4261
 
     Using Slab Decomposition
 


     bravais-lattice index     =            4
     lattice parameter (alat)  =       5.4802  a.u.
     unit-cell volume          =     412.8597 (a.u.)^3
     number of atoms/cell      =            4
     number of atomic types    =            3
     number of electrons       =        38.00
     number of Kohn-Sham states=           27
     kinetic-energy cutoff     =      60.0000  Ry
     charge density cutoff     =     480.0000  Ry
     scf convergence threshold =      1.0E-07
     mixing beta               =       0.3000
     number of iterations used =            8  local-TF  mixing
     Exchange-correlation= SLA  PW   PBX  PBC
                           (   1   4   3   4   0   0   0)

     GPU acceleration is ACTIVE.  1 visible GPUs per MPI rank
     GPU-aware MPI enabled


     GPU used by master process:

        Device Number: 0
        Device name: NVIDIA A100-SXM4-80GB
        Compute capability : 80
        Ratio of single to double precision performance  : 2
        Memory Clock Rate (KHz): 1593000
        Memory Bus Width (bits): 5120
        Peak Memory Bandwidth (GB/s): ******

     celldm(1)=   5.480206  celldm(2)=   0.000000  celldm(3)=   2.896552
     celldm(4)=   0.000000  celldm(5)=   0.000000  celldm(6)=   0.000000

     crystal axes: (cart. coord. in units of alat)
               a(1) = (   1.000000   0.000000   0.000000 )  
               a(2) = (  -0.500000   0.866025   0.000000 )  
               a(3) = (   0.000000   0.000000   2.896552 )  

     reciprocal axes: (cart. coord. in units 2 pi/alat)
               b(1) = (  1.000000  0.577350 -0.000000 )  
               b(2) = (  0.000000  1.154701  0.000000 )  
               b(3) = (  0.000000 -0.000000  0.345238 )  


     PseudoPot. # 1 for Co read from file:
     ../../pseudo/Co.pbe-spn-kjpaw_psl.0.3.1.UPF
     MD5 check sum: 3c0a43779828c046024e4f3be63f8e67
     Pseudo is Projector augmented-wave + core cor, Zval = 17.0
     Generated using &quot;atomic&quot; code by A. Dal Corso  v.6.2.2
     Shape of augmentation charge: PSQ
     Using radial grid of 1193 points,  6 beta functions with: 
                l(1) =   0
                l(2) =   0
                l(3) =   1
                l(4) =   1
                l(5) =   2
                l(6) =   2
     Q(r) pseudized with 0 coefficients 


     PseudoPot. # 2 for O  read from file:
     ../../pseudo/O.pbe-n-kjpaw_psl.1.0.0.UPF
     MD5 check sum: e99d9cef9b487d1ca56f5b95ecd0fd7a
     Pseudo is Projector augmented-wave + core cor, Zval =  6.0
     Generated using &quot;atomic&quot; code by A. Dal Corso  v.6.3
     Shape of augmentation charge: PSQ
     Using radial grid of 1095 points,  4 beta functions with: 
                l(1) =   0
                l(2) =   0
                l(3) =   1
                l(4) =   1
     Q(r) pseudized with 0 coefficients 


     PseudoPot. # 3 for K  read from file:
     ../../pseudo/K.pbe-spn-kjpaw_psl.1.0.0.UPF
     MD5 check sum: 34cc42130a09071ebe376fd42eb21491
     Pseudo is Projector augmented-wave + core cor, Zval =  9.0
     Generated using &quot;atomic&quot; code by A. Dal Corso  v.6.2.2
     Shape of augmentation charge: PSQ
     Using radial grid of 1165 points,  6 beta functions with: 
                l(1) =   0
                l(2) =   0
                l(3) =   1
                l(4) =   1
                l(5) =   2
                l(6) =   2
     Q(r) pseudized with 0 coefficients 


     atomic species   valence    mass     pseudopotential
     Co               17.00    58.93300     Co( 1.00)
     O                 6.00    15.99900     O ( 1.00)
     K                 9.00    39.09830     K ( 1.00)

     Starting magnetic structure 
     atomic species   magnetization
     Co              0.300
     O               0.000
     K               0.000

      6 Sym. Ops. (no inversion) found


                                    s                        frac. trans.

      isym =  1     identity                                     

 cryst.   s( 1) = (     1          0          0      )
                  (     0          1          0      )
                  (     0          0          1      )

 cart.    s( 1) = (  1.0000000  0.0000000  0.0000000 )
                  (  0.0000000  1.0000000  0.0000000 )
                  (  0.0000000  0.0000000  1.0000000 )


      isym =  2     120 deg rotation - cryst. axis [0,0,1]       

 cryst.   s( 2) = (     0          1          0      )
                  (    -1         -1          0      )
                  (     0          0          1      )

 cart.    s( 2) = ( -0.5000000 -0.8660254  0.0000000 )
                  (  0.8660254 -0.5000000  0.0000000 )
                  (  0.0000000  0.0000000  1.0000000 )


      isym =  3     120 deg rotation - cryst. axis [0,0,-1]      

 cryst.   s( 3) = (    -1         -1          0      )
                  (     1          0          0      )
                  (     0          0          1      )

 cart.    s( 3) = ( -0.5000000  0.8660254  0.0000000 )
                  ( -0.8660254 -0.5000000  0.0000000 )
                  (  0.0000000  0.0000000  1.0000000 )


      isym =  4     inv. 180 deg rotation - cart. axis [1,0,0]   

 cryst.   s( 4) = (    -1          0          0      )
                  (     1          1          0      )
                  (     0          0          1      )

 cart.    s( 4) = ( -1.0000000  0.0000000  0.0000000 )
                  (  0.0000000  1.0000000  0.0000000 )
                  (  0.0000000  0.0000000  1.0000000 )


      isym =  5     inv. 180 deg rotation - cryst. axis [0,1,0]  

 cryst.   s( 5) = (     1          1          0      )
                  (     0         -1          0      )
                  (     0          0          1      )

 cart.    s( 5) = (  0.5000000  0.8660254  0.0000000 )
                  (  0.8660254 -0.5000000  0.0000000 )
                  (  0.0000000  0.0000000  1.0000000 )


      isym =  6     inv. 180 deg rotation - cryst. axis [1,1,0]  

 cryst.   s( 6) = (     0         -1          0      )
                  (    -1          0          0      )
                  (     0          0          1      )

 cart.    s( 6) = (  0.5000000 -0.8660254  0.0000000 )
                  ( -0.8660254 -0.5000000  0.0000000 )
                  (  0.0000000  0.0000000  1.0000000 )


     point group C_3v (3m)  
     there are  3 classes
     the character table:

       E     2C3   3s_v 
A_1    1.00  1.00  1.00
A_2    1.00  1.00 -1.00
E      2.00 -1.00  0.00

     the symmetry operations in each class and the name of the first element:

     E        1
          identity                                               
     2C3      2    3
          120 deg rotation - cryst. axis [0,0,1]                 
     3s_v     4    5    6
          inv. 180 deg rotation - cart. axis [1,0,0]             

   Cartesian axes

     site n.     atom                  positions (alat units)
         1        Co     tau(   1) = (   0.0000000   0.0000000   0.0000000  )
         2        O      tau(   2) = (  -0.0000000   0.5773503   0.3310345  )
         3        O      tau(   3) = (   0.5000000   0.2886751   2.5655172  )
         4        K      tau(   4) = (   0.0000000   0.0000000   1.7068965  )

   Crystallographic axes

     site n.     atom                  positions (cryst. coord.)
         1        Co     tau(   1) = (  0.0000000  0.0000000  0.0000000  )
         2        O      tau(   2) = (  0.3333333  0.6666667  0.1142857  )
         3        O      tau(   3) = (  0.6666667  0.3333333  0.8857143  )
         4        K      tau(   4) = (  0.0000000  0.0000000  0.5892857  )

     number of k points=    25  Marzari-Vanderbilt smearing, width (Ry)=  0.0200
                       cart. coord. in units 2pi/alat
        k(    1) = (   0.0000000   0.0000000   0.0000000), wk =   0.0052083
        k(    2) = (   0.0000000   0.0000000   0.1150794), wk =   0.0104167
        k(    3) = (   0.0000000   0.1443376   0.0000000), wk =   0.0312500
        k(    4) = (   0.0000000   0.1443376   0.1150794), wk =   0.0312500
        k(    5) = (   0.0000000   0.2886751   0.0000000), wk =   0.0312500
        k(    6) = (   0.0000000   0.2886751   0.1150794), wk =   0.0312500
        k(    7) = (   0.0000000   0.4330127   0.0000000), wk =   0.0312500
        k(    8) = (   0.0000000   0.4330127   0.1150794), wk =   0.0312500
        k(    9) = (   0.0000000  -0.5773503   0.0000000), wk =   0.0156250
        k(   10) = (   0.0000000  -0.5773503   0.1150794), wk =   0.0312500
        k(   11) = (   0.1250000   0.2165064   0.0000000), wk =   0.0312500
        k(   12) = (   0.1250000   0.2165064   0.1150794), wk =   0.0625000
        k(   13) = (   0.1250000   0.3608439   0.0000000), wk =   0.0625000
        k(   14) = (   0.1250000   0.3608439   0.1150794), wk =   0.0625000
        k(   15) = (   0.1250000   0.5051815   0.0000000), wk =   0.0625000
        k(   16) = (   0.1250000   0.5051815   0.1150794), wk =   0.0625000
        k(   17) = (   0.2500000   0.4330127   0.0000000), wk =   0.0312500
        k(   18) = (   0.2500000   0.4330127   0.1150794), wk =   0.0625000
        k(   19) = (   0.2500000   0.5773503   0.0000000), wk =   0.0312500
        k(   20) = (   0.2500000   0.5773503   0.1150794), wk =   0.0625000
        k(   21) = (   0.0000000  -0.1443376   0.1150794), wk =   0.0312500
        k(   22) = (   0.0000000  -0.2886751   0.1150794), wk =   0.0312500
        k(   23) = (   0.0000000  -0.4330127   0.1150794), wk =   0.0312500
        k(   24) = (  -0.1250000  -0.3608439   0.1150794), wk =   0.0625000
        k(   25) = (  -0.1250000  -0.5051815   0.1150794), wk =   0.0625000

                       cryst. coord.
        k(    1) = (   0.0000000   0.0000000   0.0000000), wk =   0.0052083
        k(    2) = (   0.0000000   0.0000000   0.3333333), wk =   0.0104167
        k(    3) = (   0.0000000   0.1250000   0.0000000), wk =   0.0312500
        k(    4) = (   0.0000000   0.1250000   0.3333333), wk =   0.0312500
        k(    5) = (   0.0000000   0.2500000   0.0000000), wk =   0.0312500
        k(    6) = (   0.0000000   0.2500000   0.3333333), wk =   0.0312500
        k(    7) = (   0.0000000   0.3750000   0.0000000), wk =   0.0312500
        k(    8) = (   0.0000000   0.3750000   0.3333333), wk =   0.0312500
        k(    9) = (   0.0000000  -0.5000000   0.0000000), wk =   0.0156250
        k(   10) = (   0.0000000  -0.5000000   0.3333333), wk =   0.0312500
        k(   11) = (   0.1250000   0.1250000   0.0000000), wk =   0.0312500
        k(   12) = (   0.1250000   0.1250000   0.3333333), wk =   0.0625000
        k(   13) = (   0.1250000   0.2500000   0.0000000), wk =   0.0625000
        k(   14) = (   0.1250000   0.2500000   0.3333333), wk =   0.0625000
        k(   15) = (   0.1250000   0.3750000   0.0000000), wk =   0.0625000
        k(   16) = (   0.1250000   0.3750000   0.3333333), wk =   0.0625000
        k(   17) = (   0.2500000   0.2500000   0.0000000), wk =   0.0312500
        k(   18) = (   0.2500000   0.2500000   0.3333333), wk =   0.0625000
        k(   19) = (   0.2500000   0.3750000   0.0000000), wk =   0.0312500
        k(   20) = (   0.2500000   0.3750000   0.3333333), wk =   0.0625000
        k(   21) = (   0.0000000  -0.1250000   0.3333333), wk =   0.0312500
        k(   22) = (   0.0000000  -0.2500000   0.3333333), wk =   0.0312500
        k(   23) = (   0.0000000  -0.3750000   0.3333333), wk =   0.0312500
        k(   24) = (  -0.1250000  -0.2500000   0.3333333), wk =   0.0625000
        k(   25) = (  -0.1250000  -0.3750000   0.3333333), wk =   0.0625000

     Dense  grid:    73353 G-vectors     FFT dimensions: (  40,  40, 120)

     Smooth grid:    26017 G-vectors     FFT dimensions: (  27,  27,  80)

     Dynamical RAM for                 wfc:       1.33 MB

     Dynamical RAM for     wfc (w. buffer):      68.08 MB

     Dynamical RAM for           str. fact:       3.36 MB

     Dynamical RAM for           local pot:       0.00 MB

     Dynamical RAM for          nlocal pot:       2.57 MB

     Dynamical RAM for                qrad:       5.27 MB

     Dynamical RAM for          rho,v,vnew:      15.50 MB

     Dynamical RAM for               rhoin:       5.17 MB

     Dynamical RAM for            rho*nmix:      35.82 MB

     Dynamical RAM for           G-vectors:       4.40 MB

     Dynamical RAM for          h,s,v(r/c):       0.13 MB

     Dynamical RAM for          <psi|beta>:       0.02 MB

     Dynamical RAM for                 psi:       2.67 MB

     Dynamical RAM for                hpsi:       2.67 MB

     Dynamical RAM for                spsi:       2.67 MB

     Dynamical RAM for      wfcinit/wfcrot:       2.69 MB

     Dynamical RAM for           addusdens:     211.54 MB

     Dynamical RAM for          addusforce:     213.80 MB

     Estimated static dynamical RAM per process >     117.61 MB

     Estimated max dynamical RAM per process >     367.23 MB

     Check: negative core charge=   -0.000007
     Generating pointlists ...
     new r_m :   0.2745 (alat units)  1.5045 (a.u.) for type    1
     new r_m :   0.2745 (alat units)  1.5045 (a.u.) for type    2
     new r_m :   0.4125 (alat units)  2.2606 (a.u.) for type    3

     Initial potential from superposition of free atoms

     starting charge      37.9809, renormalised to      38.0000
     Starting wfcs are   26 randomized atomic wfcs +    1 random wfcs
     Checking if some PAW data can be deallocated... 

     total cpu time spent up to now is        4.0 secs

     Self-consistent Calculation
[tb_dev] Currently allocated     6.58E-01 Mbytes, locked:    0 /   6
[tb_pin] Currently allocated     0.00E+00 Mbytes, locked:    0 /   0

     iteration #  1     ecut=    60.00 Ry     beta= 0.30
     Davidson diagonalization with overlap

---- Real-time Memory Report at c_bands before calling an iterative solver
           701 MiB given to the printing process from OS
             0 MiB allocation reported by mallinfo(arena+hblkhd)
       1348678 MiB available memory on the node where the printing process lives
     GPU memory used/free/total (MiB): 1060 / 80090 / 81151
------------------
     ethr =  1.00E-02,  avg # of iterations =  8.2

     total cpu time spent up to now is        6.2 secs

     total energy              =    -572.77877991 Ry
     estimated scf accuracy    <       1.74397433 Ry

     total magnetization       =     4.00 Bohr mag/cell
     absolute magnetization    =     4.00 Bohr mag/cell
[tb_dev] Currently allocated     3.05E-05 Mbytes, locked:    0 /   2
[tb_pin] Currently allocated     0.00E+00 Mbytes, locked:    0 /   0

     iteration #  2     ecut=    60.00 Ry     beta= 0.30
     Davidson diagonalization with overlap

---- Real-time Memory Report at c_bands before calling an iterative solver
           744 MiB given to the printing process from OS
             0 MiB allocation reported by mallinfo(arena+hblkhd)
       1345846 MiB available memory on the node where the printing process lives
     GPU memory used/free/total (MiB): 1078 / 80072 / 81151
------------------
     ethr =  4.59E-03,  avg # of iterations =  2.0

     total cpu time spent up to now is        7.6 secs

     total energy              =    -572.73737749 Ry
     estimated scf accuracy    <       0.72313403 Ry

     total magnetization       =     3.95 Bohr mag/cell
     absolute magnetization    =     3.95 Bohr mag/cell
[tb_dev] Currently allocated     3.05E-05 Mbytes, locked:    0 /   2
[tb_pin] Currently allocated     0.00E+00 Mbytes, locked:    0 /   0

     iteration #  3     ecut=    60.00 Ry     beta= 0.30
     Davidson diagonalization with overlap

---- Real-time Memory Report at c_bands before calling an iterative solver
           745 MiB given to the printing process from OS
             0 MiB allocation reported by mallinfo(arena+hblkhd)
       1342733 MiB available memory on the node where the printing process lives
     GPU memory used/free/total (MiB): 1078 / 80072 / 81151
------------------
     ethr =  1.90E-03,  avg # of iterations =  2.4

     total cpu time spent up to now is        9.0 secs

     total energy              =    -573.00438409 Ry
     estimated scf accuracy    <       1.33745947 Ry

     total magnetization       =     1.37 Bohr mag/cell
     absolute magnetization    =     1.53 Bohr mag/cell
[tb_dev] Currently allocated     3.05E-05 Mbytes, locked:    0 /   2
[tb_pin] Currently allocated     0.00E+00 Mbytes, locked:    0 /   0

     iteration #  4     ecut=    60.00 Ry     beta= 0.30
     Davidson diagonalization with overlap

---- Real-time Memory Report at c_bands before calling an iterative solver
           746 MiB given to the printing process from OS
             0 MiB allocation reported by mallinfo(arena+hblkhd)
       1361421 MiB available memory on the node where the printing process lives
     GPU memory used/free/total (MiB): 1078 / 80072 / 81151
------------------
     ethr =  1.90E-03,  avg # of iterations =  1.6

     total cpu time spent up to now is       10.3 secs

     total energy              =    -573.01992753 Ry
     estimated scf accuracy    <       2.87915804 Ry

     total magnetization       =     0.77 Bohr mag/cell
     absolute magnetization    =     1.14 Bohr mag/cell
[tb_dev] Currently allocated     3.05E-05 Mbytes, locked:    0 /   2
[tb_pin] Currently allocated     0.00E+00 Mbytes, locked:    0 /   0

     iteration #  5     ecut=    60.00 Ry     beta= 0.30
     Davidson diagonalization with overlap

---- Real-time Memory Report at c_bands before calling an iterative solver
           747 MiB given to the printing process from OS
             0 MiB allocation reported by mallinfo(arena+hblkhd)
       1359927 MiB available memory on the node where the printing process lives
     GPU memory used/free/total (MiB): 1078 / 80072 / 81151
------------------
     ethr =  1.90E-03,  avg # of iterations =  1.6

     total cpu time spent up to now is       11.6 secs

     total energy              =    -572.64502612 Ry
     estimated scf accuracy    <       2.29338138 Ry

     total magnetization       =     0.63 Bohr mag/cell
     absolute magnetization    =     1.13 Bohr mag/cell
[tb_dev] Currently allocated     3.05E-05 Mbytes, locked:    0 /   2
[tb_pin] Currently allocated     0.00E+00 Mbytes, locked:    0 /   0

     iteration #  6     ecut=    60.00 Ry     beta= 0.30
     Davidson diagonalization with overlap

---- Real-time Memory Report at c_bands before calling an iterative solver
           748 MiB given to the printing process from OS
             0 MiB allocation reported by mallinfo(arena+hblkhd)
       1358568 MiB available memory on the node where the printing process lives
     GPU memory used/free/total (MiB): 1078 / 80072 / 81151
------------------
     ethr =  1.90E-03,  avg # of iterations =  2.8

     total cpu time spent up to now is       13.1 secs

     total energy              =    -572.87996917 Ry
     estimated scf accuracy    <       0.35887905 Ry

     total magnetization       =     0.79 Bohr mag/cell
     absolute magnetization    =     0.95 Bohr mag/cell
[tb_dev] Currently allocated     3.05E-05 Mbytes, locked:    0 /   2
[tb_pin] Currently allocated     0.00E+00 Mbytes, locked:    0 /   0

     iteration #  7     ecut=    60.00 Ry     beta= 0.30
     Davidson diagonalization with overlap

---- Real-time Memory Report at c_bands before calling an iterative solver
           749 MiB given to the printing process from OS
             0 MiB allocation reported by mallinfo(arena+hblkhd)
       1357382 MiB available memory on the node where the printing process lives
     GPU memory used/free/total (MiB): 1078 / 80072 / 81151
------------------
     ethr =  9.44E-04,  avg # of iterations =  1.6

     total cpu time spent up to now is       14.4 secs

     total energy              =    -572.92085212 Ry
     estimated scf accuracy    <       0.13882077 Ry

     total magnetization       =     0.18 Bohr mag/cell
     absolute magnetization    =     0.64 Bohr mag/cell
[tb_dev] Currently allocated     3.05E-05 Mbytes, locked:    0 /   2
[tb_pin] Currently allocated     0.00E+00 Mbytes, locked:    0 /   0

     iteration #  8     ecut=    60.00 Ry     beta= 0.30
     Davidson diagonalization with overlap

---- Real-time Memory Report at c_bands before calling an iterative solver
           750 MiB given to the printing process from OS
             0 MiB allocation reported by mallinfo(arena+hblkhd)
       1356067 MiB available memory on the node where the printing process lives
     GPU memory used/free/total (MiB): 1078 / 80072 / 81151
------------------
     ethr =  3.65E-04,  avg # of iterations =  3.5

     total cpu time spent up to now is       15.9 secs

     total energy              =    -572.94314836 Ry
     estimated scf accuracy    <       0.10786910 Ry

     total magnetization       =     0.17 Bohr mag/cell
     absolute magnetization    =     0.60 Bohr mag/cell
[tb_dev] Currently allocated     3.05E-05 Mbytes, locked:    0 /   2
[tb_pin] Currently allocated     0.00E+00 Mbytes, locked:    0 /   0

     iteration #  9     ecut=    60.00 Ry     beta= 0.30
     Davidson diagonalization with overlap

---- Real-time Memory Report at c_bands before calling an iterative solver
           752 MiB given to the printing process from OS
             0 MiB allocation reported by mallinfo(arena+hblkhd)
       1354801 MiB available memory on the node where the printing process lives
     GPU memory used/free/total (MiB): 1078 / 80072 / 81151
------------------
     ethr =  2.84E-04,  avg # of iterations =  5.3

     total cpu time spent up to now is       17.6 secs

     total energy              =    -572.89203992 Ry
     estimated scf accuracy    <       0.61913787 Ry

     total magnetization       =     0.04 Bohr mag/cell
     absolute magnetization    =     0.51 Bohr mag/cell
[tb_dev] Currently allocated     3.05E-05 Mbytes, locked:    0 /   2
[tb_pin] Currently allocated     0.00E+00 Mbytes, locked:    0 /   0

     iteration # 10     ecut=    60.00 Ry     beta= 0.30
     Davidson diagonalization with overlap

---- Real-time Memory Report at c_bands before calling an iterative solver
           753 MiB given to the printing process from OS
             0 MiB allocation reported by mallinfo(arena+hblkhd)
       1353338 MiB available memory on the node where the printing process lives
     GPU memory used/free/total (MiB): 1078 / 80072 / 81151
------------------
     ethr =  2.84E-04,  avg # of iterations =  1.7

     total cpu time spent up to now is       19.0 secs

     total energy              =    -572.93180103 Ry
     estimated scf accuracy    <       0.03228834 Ry

     total magnetization       =     0.24 Bohr mag/cell
     absolute magnetization    =     0.50 Bohr mag/cell
[tb_dev] Currently allocated     3.05E-05 Mbytes, locked:    0 /   2
[tb_pin] Currently allocated     0.00E+00 Mbytes, locked:    0 /   0

     iteration # 11     ecut=    60.00 Ry     beta= 0.30
     Davidson diagonalization with overlap

---- Real-time Memory Report at c_bands before calling an iterative solver
           753 MiB given to the printing process from OS
             0 MiB allocation reported by mallinfo(arena+hblkhd)
       1352318 MiB available memory on the node where the printing process lives
     GPU memory used/free/total (MiB): 1078 / 80072 / 81151
------------------
     ethr =  8.50E-05,  avg # of iterations =  5.8

     total cpu time spent up to now is       20.8 secs

     total energy              =    -572.93520465 Ry
     estimated scf accuracy    <       0.01541030 Ry

     total magnetization       =     0.35 Bohr mag/cell
     absolute magnetization    =     0.44 Bohr mag/cell
[tb_dev] Currently allocated     3.05E-05 Mbytes, locked:    0 /   2
[tb_pin] Currently allocated     0.00E+00 Mbytes, locked:    0 /   0

     iteration # 12     ecut=    60.00 Ry     beta= 0.30
     Davidson diagonalization with overlap

---- Real-time Memory Report at c_bands before calling an iterative solver
           753 MiB given to the printing process from OS
             0 MiB allocation reported by mallinfo(arena+hblkhd)
       1350882 MiB available memory on the node where the printing process lives
     GPU memory used/free/total (MiB): 1078 / 80072 / 81151
------------------
     ethr =  4.06E-05,  avg # of iterations =  3.2

     total cpu time spent up to now is       22.3 secs

     total energy              =    -572.93294600 Ry
     estimated scf accuracy    <       0.01222351 Ry

     total magnetization       =     0.34 Bohr mag/cell
     absolute magnetization    =     0.41 Bohr mag/cell
[tb_dev] Currently allocated     3.05E-05 Mbytes, locked:    0 /   2
[tb_pin] Currently allocated     0.00E+00 Mbytes, locked:    0 /   0

     iteration # 13     ecut=    60.00 Ry     beta= 0.30
     Davidson diagonalization with overlap

---- Real-time Memory Report at c_bands before calling an iterative solver
           753 MiB given to the printing process from OS
             0 MiB allocation reported by mallinfo(arena+hblkhd)
       1348700 MiB available memory on the node where the printing process lives
     GPU memory used/free/total (MiB): 1078 / 80072 / 81151
------------------
     ethr =  3.22E-05,  avg # of iterations =  4.5

     total cpu time spent up to now is       23.9 secs

     total energy              =    -572.93480349 Ry
     estimated scf accuracy    <       0.00064033 Ry

     total magnetization       =     0.37 Bohr mag/cell
     absolute magnetization    =     0.43 Bohr mag/cell
[tb_dev] Currently allocated     3.05E-05 Mbytes, locked:    0 /   2
[tb_pin] Currently allocated     0.00E+00 Mbytes, locked:    0 /   0

     iteration # 14     ecut=    60.00 Ry     beta= 0.30
     Davidson diagonalization with overlap

---- Real-time Memory Report at c_bands before calling an iterative solver
           753 MiB given to the printing process from OS
             0 MiB allocation reported by mallinfo(arena+hblkhd)
       1345665 MiB available memory on the node where the printing process lives
     GPU memory used/free/total (MiB): 1078 / 80072 / 81151
------------------
     c_bands:  1 eigenvalues not converged
     c_bands:  1 eigenvalues not converged
     c_bands:  1 eigenvalues not converged
     c_bands:  1 eigenvalues not converged
     c_bands:  1 eigenvalues not converged
     c_bands:  1 eigenvalues not converged
     c_bands:  1 eigenvalues not converged
     c_bands:  1 eigenvalues not converged
     c_bands:  1 eigenvalues not converged
     c_bands:  1 eigenvalues not converged
     c_bands:  1 eigenvalues not converged
     c_bands:  1 eigenvalues not converged
     ethr =  1.69E-06,  avg # of iterations = 11.9

     total cpu time spent up to now is       26.7 secs

     total energy              =    -572.93527323 Ry
     estimated scf accuracy    <       0.00091904 Ry

     total magnetization       =     0.37 Bohr mag/cell
     absolute magnetization    =     0.42 Bohr mag/cell
[tb_dev] Currently allocated     3.05E-05 Mbytes, locked:    0 /   2
[tb_pin] Currently allocated     0.00E+00 Mbytes, locked:    0 /   0

     iteration # 15     ecut=    60.00 Ry     beta= 0.30
     Davidson diagonalization with overlap

---- Real-time Memory Report at c_bands before calling an iterative solver
           753 MiB given to the printing process from OS
             0 MiB allocation reported by mallinfo(arena+hblkhd)
       1340883 MiB available memory on the node where the printing process lives
     GPU memory used/free/total (MiB): 1078 / 80072 / 81151
------------------
     ethr =  1.69E-06,  avg # of iterations =  2.6

     total cpu time spent up to now is       28.1 secs

     total energy              =    -572.93516091 Ry
     estimated scf accuracy    <       0.00083679 Ry

     total magnetization       =     0.37 Bohr mag/cell
     absolute magnetization    =     0.43 Bohr mag/cell
[tb_dev] Currently allocated     3.05E-05 Mbytes, locked:    0 /   2
[tb_pin] Currently allocated     0.00E+00 Mbytes, locked:    0 /   0

     iteration # 16     ecut=    60.00 Ry     beta= 0.30
     Davidson diagonalization with overlap

---- Real-time Memory Report at c_bands before calling an iterative solver
           753 MiB given to the printing process from OS
             0 MiB allocation reported by mallinfo(arena+hblkhd)
       1359714 MiB available memory on the node where the printing process lives
     GPU memory used/free/total (MiB): 1078 / 80072 / 81151
------------------
     ethr =  1.69E-06,  avg # of iterations =  1.4

     total cpu time spent up to now is       29.3 secs

     total energy              =    -572.93511676 Ry
     estimated scf accuracy    <       0.00029058 Ry

     total magnetization       =     0.37 Bohr mag/cell
     absolute magnetization    =     0.43 Bohr mag/cell
[tb_dev] Currently allocated     3.05E-05 Mbytes, locked:    0 /   2
[tb_pin] Currently allocated     0.00E+00 Mbytes, locked:    0 /   0

     iteration # 17     ecut=    60.00 Ry     beta= 0.30
     Davidson diagonalization with overlap

---- Real-time Memory Report at c_bands before calling an iterative solver
           753 MiB given to the printing process from OS
             0 MiB allocation reported by mallinfo(arena+hblkhd)
       1358764 MiB available memory on the node where the printing process lives
     GPU memory used/free/total (MiB): 1078 / 80072 / 81151
------------------
     ethr =  7.65E-07,  avg # of iterations =  2.0

     total cpu time spent up to now is       30.7 secs

     total energy              =    -572.93515070 Ry
     estimated scf accuracy    <       0.00002629 Ry

     total magnetization       =     0.37 Bohr mag/cell
     absolute magnetization    =     0.43 Bohr mag/cell
[tb_dev] Currently allocated     3.05E-05 Mbytes, locked:    0 /   2
[tb_pin] Currently allocated     0.00E+00 Mbytes, locked:    0 /   0

     iteration # 18     ecut=    60.00 Ry     beta= 0.30
     Davidson diagonalization with overlap

---- Real-time Memory Report at c_bands before calling an iterative solver
           753 MiB given to the printing process from OS
             0 MiB allocation reported by mallinfo(arena+hblkhd)
       1357526 MiB available memory on the node where the printing process lives
     GPU memory used/free/total (MiB): 1078 / 80072 / 81151
------------------
     ethr =  6.92E-08,  avg # of iterations =  6.6

     total cpu time spent up to now is       32.6 secs

     total energy              =    -572.93517813 Ry
     estimated scf accuracy    <       0.00000855 Ry

     total magnetization       =     0.37 Bohr mag/cell
     absolute magnetization    =     0.43 Bohr mag/cell
[tb_dev] Currently allocated     3.05E-05 Mbytes, locked:    0 /   2
[tb_pin] Currently allocated     0.00E+00 Mbytes, locked:    0 /   0

     iteration # 19     ecut=    60.00 Ry     beta= 0.30
     Davidson diagonalization with overlap

---- Real-time Memory Report at c_bands before calling an iterative solver
           753 MiB given to the printing process from OS
             0 MiB allocation reported by mallinfo(arena+hblkhd)
       1355717 MiB available memory on the node where the printing process lives
     GPU memory used/free/total (MiB): 1078 / 80072 / 81151
------------------
     ethr =  2.25E-08,  avg # of iterations =  3.1

     total cpu time spent up to now is       34.1 secs

     total energy              =    -572.93517830 Ry
     estimated scf accuracy    <       0.00000692 Ry

     total magnetization       =     0.37 Bohr mag/cell
     absolute magnetization    =     0.43 Bohr mag/cell
[tb_dev] Currently allocated     3.05E-05 Mbytes, locked:    0 /   2
[tb_pin] Currently allocated     0.00E+00 Mbytes, locked:    0 /   0

     iteration # 20     ecut=    60.00 Ry     beta= 0.30
     Davidson diagonalization with overlap

---- Real-time Memory Report at c_bands before calling an iterative solver
           753 MiB given to the printing process from OS
             0 MiB allocation reported by mallinfo(arena+hblkhd)
       1354340 MiB available memory on the node where the printing process lives
     GPU memory used/free/total (MiB): 1078 / 80072 / 81151
------------------
     ethr =  1.82E-08,  avg # of iterations =  2.6

     total cpu time spent up to now is       35.5 secs

     total energy              =    -572.93517960 Ry
     estimated scf accuracy    <       0.00000534 Ry

     total magnetization       =     0.37 Bohr mag/cell
     absolute magnetization    =     0.43 Bohr mag/cell
[tb_dev] Currently allocated     3.05E-05 Mbytes, locked:    0 /   2
[tb_pin] Currently allocated     0.00E+00 Mbytes, locked:    0 /   0

     iteration # 21     ecut=    60.00 Ry     beta= 0.30
     Davidson diagonalization with overlap

---- Real-time Memory Report at c_bands before calling an iterative solver
           753 MiB given to the printing process from OS
             0 MiB allocation reported by mallinfo(arena+hblkhd)
       1353304 MiB available memory on the node where the printing process lives
     GPU memory used/free/total (MiB): 1078 / 80072 / 81151
------------------
     ethr =  1.41E-08,  avg # of iterations =  1.4

     total cpu time spent up to now is       36.8 secs

     total energy              =    -572.93518092 Ry
     estimated scf accuracy    <       0.00000586 Ry

     total magnetization       =     0.37 Bohr mag/cell
     absolute magnetization    =     0.43 Bohr mag/cell
[tb_dev] Currently allocated     3.05E-05 Mbytes, locked:    0 /   2
[tb_pin] Currently allocated     0.00E+00 Mbytes, locked:    0 /   0

     iteration # 22     ecut=    60.00 Ry     beta= 0.30
     Davidson diagonalization with overlap

---- Real-time Memory Report at c_bands before calling an iterative solver
           753 MiB given to the printing process from OS
             0 MiB allocation reported by mallinfo(arena+hblkhd)
       1352208 MiB available memory on the node where the printing process lives
     GPU memory used/free/total (MiB): 1078 / 80072 / 81151
------------------
     ethr =  1.41E-08,  avg # of iterations =  1.6

     total cpu time spent up to now is       38.1 secs

     total energy              =    -572.93518009 Ry
     estimated scf accuracy    <       0.00000931 Ry

     total magnetization       =     0.37 Bohr mag/cell
     absolute magnetization    =     0.43 Bohr mag/cell
[tb_dev] Currently allocated     3.05E-05 Mbytes, locked:    0 /   2
[tb_pin] Currently allocated     0.00E+00 Mbytes, locked:    0 /   0

     iteration # 23     ecut=    60.00 Ry     beta= 0.30
     Davidson diagonalization with overlap

---- Real-time Memory Report at c_bands before calling an iterative solver
           753 MiB given to the printing process from OS
             0 MiB allocation reported by mallinfo(arena+hblkhd)
       1350254 MiB available memory on the node where the printing process lives
     GPU memory used/free/total (MiB): 1078 / 80072 / 81151
------------------
     ethr =  1.41E-08,  avg # of iterations =  1.2

     total cpu time spent up to now is       39.4 secs

     total energy              =    -572.93518036 Ry
     estimated scf accuracy    <       0.00000547 Ry

     total magnetization       =     0.37 Bohr mag/cell
     absolute magnetization    =     0.43 Bohr mag/cell
[tb_dev] Currently allocated     3.05E-05 Mbytes, locked:    0 /   2
[tb_pin] Currently allocated     0.00E+00 Mbytes, locked:    0 /   0

     iteration # 24     ecut=    60.00 Ry     beta= 0.30
     Davidson diagonalization with overlap

---- Real-time Memory Report at c_bands before calling an iterative solver
           753 MiB given to the printing process from OS
             0 MiB allocation reported by mallinfo(arena+hblkhd)
       1349137 MiB available memory on the node where the printing process lives
     GPU memory used/free/total (MiB): 1078 / 80072 / 81151
------------------
     ethr =  1.41E-08,  avg # of iterations =  1.1

     total cpu time spent up to now is       40.7 secs

     total energy              =    -572.93518052 Ry
     estimated scf accuracy    <       0.00000554 Ry

     total magnetization       =     0.37 Bohr mag/cell
     absolute magnetization    =     0.43 Bohr mag/cell
[tb_dev] Currently allocated     3.05E-05 Mbytes, locked:    0 /   2
[tb_pin] Currently allocated     0.00E+00 Mbytes, locked:    0 /   0

     iteration # 25     ecut=    60.00 Ry     beta= 0.30
     Davidson diagonalization with overlap

---- Real-time Memory Report at c_bands before calling an iterative solver
           753 MiB given to the printing process from OS
             0 MiB allocation reported by mallinfo(arena+hblkhd)
       1347600 MiB available memory on the node where the printing process lives
     GPU memory used/free/total (MiB): 1078 / 80072 / 81151
------------------
     ethr =  1.41E-08,  avg # of iterations =  1.1

     total cpu time spent up to now is       41.9 secs

     total energy              =    -572.93518022 Ry
     estimated scf accuracy    <       0.00000600 Ry

     total magnetization       =     0.37 Bohr mag/cell
     absolute magnetization    =     0.43 Bohr mag/cell
[tb_dev] Currently allocated     3.05E-05 Mbytes, locked:    0 /   2
[tb_pin] Currently allocated     0.00E+00 Mbytes, locked:    0 /   0

     iteration # 26     ecut=    60.00 Ry     beta= 0.30
     Davidson diagonalization with overlap

---- Real-time Memory Report at c_bands before calling an iterative solver
           753 MiB given to the printing process from OS
             0 MiB allocation reported by mallinfo(arena+hblkhd)
       1345434 MiB available memory on the node where the printing process lives
     GPU memory used/free/total (MiB): 1078 / 80072 / 81151
------------------
     ethr =  1.41E-08,  avg # of iterations =  1.1

     total cpu time spent up to now is       43.1 secs

     total energy              =    -572.93517848 Ry
     estimated scf accuracy    <       0.00000498 Ry

     total magnetization       =     0.37 Bohr mag/cell
     absolute magnetization    =     0.43 Bohr mag/cell
[tb_dev] Currently allocated     3.05E-05 Mbytes, locked:    0 /   2
[tb_pin] Currently allocated     0.00E+00 Mbytes, locked:    0 /   0

     iteration # 27     ecut=    60.00 Ry     beta= 0.30
     Davidson diagonalization with overlap

---- Real-time Memory Report at c_bands before calling an iterative solver
           753 MiB given to the printing process from OS
             0 MiB allocation reported by mallinfo(arena+hblkhd)
       1343280 MiB available memory on the node where the printing process lives
     GPU memory used/free/total (MiB): 1078 / 80072 / 81151
------------------
     ethr =  1.31E-08,  avg # of iterations =  1.7

     total cpu time spent up to now is       44.4 secs

     total energy              =    -572.93517898 Ry
     estimated scf accuracy    <       0.00000113 Ry

     total magnetization       =     0.37 Bohr mag/cell
     absolute magnetization    =     0.43 Bohr mag/cell
[tb_dev] Currently allocated     3.05E-05 Mbytes, locked:    0 /   2
[tb_pin] Currently allocated     0.00E+00 Mbytes, locked:    0 /   0

     iteration # 28     ecut=    60.00 Ry     beta= 0.30
     Davidson diagonalization with overlap

---- Real-time Memory Report at c_bands before calling an iterative solver
           753 MiB given to the printing process from OS
             0 MiB allocation reported by mallinfo(arena+hblkhd)
       1340374 MiB available memory on the node where the printing process lives
     GPU memory used/free/total (MiB): 1078 / 80072 / 81151
------------------
     ethr =  2.98E-09,  avg # of iterations =  4.6

     total cpu time spent up to now is       46.2 secs

     total energy              =    -572.93517977 Ry
     estimated scf accuracy    <       0.00000083 Ry

     total magnetization       =     0.37 Bohr mag/cell
     absolute magnetization    =     0.43 Bohr mag/cell
[tb_dev] Currently allocated     3.05E-05 Mbytes, locked:    0 /   2
[tb_pin] Currently allocated     0.00E+00 Mbytes, locked:    0 /   0

     iteration # 29     ecut=    60.00 Ry     beta= 0.30
     Davidson diagonalization with overlap

---- Real-time Memory Report at c_bands before calling an iterative solver
           753 MiB given to the printing process from OS
             0 MiB allocation reported by mallinfo(arena+hblkhd)
       1358708 MiB available memory on the node where the printing process lives
     GPU memory used/free/total (MiB): 1078 / 80072 / 81151
------------------
     ethr =  2.19E-09,  avg # of iterations =  1.5

     total cpu time spent up to now is       47.5 secs

     total energy              =    -572.93517991 Ry
     estimated scf accuracy    <       0.00000020 Ry

     total magnetization       =     0.37 Bohr mag/cell
     absolute magnetization    =     0.43 Bohr mag/cell
[tb_dev] Currently allocated     3.05E-05 Mbytes, locked:    0 /   2
[tb_pin] Currently allocated     0.00E+00 Mbytes, locked:    0 /   0

     iteration # 30     ecut=    60.00 Ry     beta= 0.30
     Davidson diagonalization with overlap

---- Real-time Memory Report at c_bands before calling an iterative solver
           753 MiB given to the printing process from OS
             0 MiB allocation reported by mallinfo(arena+hblkhd)
       1357834 MiB available memory on the node where the printing process lives
     GPU memory used/free/total (MiB): 1078 / 80072 / 81151
------------------
     ethr =  5.39E-10,  avg # of iterations =  4.3
 
     Magnetic moment per site  (integrated on atomic sphere of radius R)
     atom   1 (R=0.275)  charge= 14.1409  magn=  0.3172
     atom   2 (R=0.275)  charge=  5.2257  magn=  0.0278
     atom   3 (R=0.275)  charge=  5.2755  magn=  0.0207
     atom   4 (R=0.413)  charge=  7.7908  magn= -0.0133

     total cpu time spent up to now is       49.1 secs

     End of self-consistent calculation

 ------ SPIN UP ------------


          k = 0.0000 0.0000 0.0000 (  3279 PWs)   bands (ev):

   -87.1391 -50.3914 -50.3559 -50.3559 -25.9805 -11.2932  -9.5302  -8.9184
    -7.9612  -7.9612   2.3506   3.1625   3.1625   5.7135   6.5630   6.5630
     6.9705   6.9705   7.0872   8.2056   9.9242  10.5663  10.5663  12.4636
    12.4636  13.4279  15.9965

     occupation numbers 
     1.0000   1.0000   1.0000   1.0000   1.0000   1.0000   1.0000   1.0000
     1.0000   1.0000   1.0000   1.0000   1.0000   1.0000   1.0000   1.0000
     1.0000   1.0000   1.0000   0.7686   0.0000   0.0000   0.0000   0.0000
     0.0000   0.0000   0.0000

          k = 0.0000 0.0000 0.1151 (  3249 PWs)   bands (ev):

   -87.1391 -50.3913 -50.3558 -50.3558 -25.9805 -11.2956  -9.5114  -8.9362
    -7.9611  -7.9611   2.3959   3.1626   3.1626   5.4544   6.5630   6.5630
     6.9705   6.9705   7.4594   8.0894   9.9698  10.5670  10.5670  12.4631
    12.4631  13.1168  15.9682

     occupation numbers 
     1.0000   1.0000   1.0000   1.0000   1.0000   1.0000   1.0000   1.0000
     1.0000   1.0000   1.0000   1.0000   1.0000   1.0000   1.0000   1.0000
     1.0000   1.0000   1.0005   1.0030   0.0000   0.0000   0.0000   0.0000
     0.0000   0.0000   0.0000

          k = 0.0000 0.1443 0.0000 (  3241 PWs)   bands (ev):

   -87.1384 -50.3901 -50.3637 -50.3577 -25.8937 -11.1285  -9.4905  -8.8805
    -8.4014  -8.0520   2.5244   2.9677   3.2645   5.4929   5.9832   6.0822
     7.2663   7.4579   7.5361   8.3715  10.0387  10.3186  10.4688  11.8386
    13.0194  13.1990  15.6409

     occupation numbers 
     1.0000   1.0000   1.0000   1.0000   1.0000   1.0000   1.0000   1.0000
     1.0000   1.0000   1.0000   1.0000   1.0000   1.0000   1.0000   1.0000
     1.0000   1.0005   1.0018   0.3300   0.0000   0.0000   0.0000   0.0000
     0.0000   0.0000   0.0000

          k = 0.0000 0.1443 0.1151 (  3236 PWs)   bands (ev):

   -87.1384 -50.3901 -50.3637 -50.3577 -25.8937 -11.1307  -9.4752  -8.8948
    -8.4012  -8.0520   2.5543   2.9637   3.2645   5.5029   5.9072   5.9831
     7.2500   7.4578   7.8668   8.2192  10.0129  10.3711  10.4691  11.8373
    13.0194  13.1394  15.2996

     occupation numbers 
     1.0000   1.0000   1.0000   1.0000   1.0000   1.0000   1.0000   1.0000
     1.0000   1.0000   1.0000   1.0000   1.0000   1.0000   1.0000   1.0000
     1.0000   1.0005   1.0646   0.7330   0.0000   0.0000   0.0000   0.0000
     0.0000   0.0000   0.0000

          k = 0.0000 0.2887 0.0000 (  3230 PWs)   bands (ev):

   -87.1367 -50.3874 -50.3828 -50.3622 -25.6756 -10.7024  -9.4641  -9.3416
    -8.7547  -8.2633   2.5340   3.0600   3.5052   4.1653   5.3968   6.3307
     7.3700   7.7320   7.9203   8.7616   9.4385  10.2921  10.3454  12.0332
    12.5991  14.5456  15.8974

     occupation numbers 
     1.0000   1.0000   1.0000   1.0000   1.0000   1.0000   1.0000   1.0000
     1.0000   1.0000   1.0000   1.0000   1.0000   1.0000   1.0000   1.0000
     1.0001   1.0228   1.0794   0.0033   0.0000   0.0000   0.0000   0.0000
     0.0000   0.0000   0.0000

          k = 0.0000 0.2887 0.1151 (  3236 PWs)   bands (ev):

   -87.1367 -50.3874 -50.3828 -50.3623 -25.6756 -10.7039  -9.4638  -9.3343
    -8.7612  -8.2633   2.5254   3.0724   3.5053   4.1774   5.3966   6.3030
     7.3592   7.7318   7.9824   8.6110   9.6092  10.2143  10.3458  12.0140
    12.7226  14.5452  15.3075

     occupation numbers 
     1.0000   1.0000   1.0000   1.0000   1.0000   1.0000   1.0000   1.0000
     1.0000   1.0000   1.0000   1.0000   1.0000   1.0000   1.0000   1.0000
     1.0001   1.0228   1.0811   0.0308   0.0000   0.0000   0.0000   0.0000
     0.0000   0.0000   0.0000

          k = 0.0000 0.4330 0.0000 (  3242 PWs)   bands (ev):

   -87.1350 -50.4021 -50.3845 -50.3670 -25.4438 -10.3842 -10.1045  -9.3955
    -8.6053  -8.4644   2.0510   3.0352   3.6959   4.1607   5.1466   5.8300
     7.2570   7.5879   7.7908   8.5182   9.3955  10.1226  10.3762  12.6572
    13.8225  14.8926  16.3615

     occupation numbers 
     1.0000   1.0000   1.0000   1.0000   1.0000   1.0000   1.0000   1.0000
     1.0000   1.0000   1.0000   1.0000   1.0000   1.0000   1.0000   1.0000
     1.0000   1.0039   1.0390   0.0916   0.0000   0.0000   0.0000   0.0000
     0.0000   0.0000   0.0000

          k = 0.0000 0.4330 0.1151 (  3243 PWs)   bands (ev):

   -87.1350 -50.4021 -50.3844 -50.3670 -25.4438 -10.3838 -10.1061  -9.3932
    -8.6065  -8.4644   2.0543   3.0279   3.6961   4.1717   5.1463   5.8102
     7.2669   7.5878   7.7866   8.4996   9.6349   9.8691  10.3775  12.7291
    13.8003  14.8898  16.3319

     occupation numbers 
     1.0000   1.0000   1.0000   1.0000   1.0000   1.0000   1.0000   1.0000
     1.0000   1.0000   1.0000   1.0000   1.0000   1.0000   1.0000   1.0000
     1.0000   1.0039   1.0376   0.1110   0.0000   0.0000   0.0000   0.0000
     0.0000   0.0000   0.0000

          k = 0.0000-0.5774 0.0000 (  3254 PWs)   bands (ev):

   -87.1343 -50.4100 -50.3834 -50.3688 -25.3432 -10.6769  -9.9108  -9.4254
    -8.5449  -8.5349   1.6679   3.1585   3.7375   4.3611   5.1434   5.5113
     7.0771   7.4377   7.7319   8.2538   9.3960  10.1560  10.4224  13.3337
    14.3325  14.7369  16.5778

     occupation numbers 
     1.0000   1.0000   1.0000   1.0000   1.0000   1.0000   1.0000   1.0000
     1.0000   1.0000   1.0000   1.0000   1.0000   1.0000   1.0000   1.0000
     1.0000   1.0003   1.0228   0.6393   0.0000   0.0000   0.0000   0.0000
     0.0000   0.0000   0.0000

          k = 0.0000-0.5774 0.1151 (  3256 PWs)   bands (ev):

   -87.1343 -50.4100 -50.3834 -50.3689 -25.3432 -10.6769  -9.9110  -9.4255
    -8.5449  -8.5347   1.6719   3.1507   3.7377   4.3750   5.1429   5.4780
     7.0845   7.4377   7.7407   8.2597   9.5259  10.0347  10.4237  13.2489
    14.3124  14.7333  16.8521

     occupation numbers 
     1.0000   1.0000   1.0000   1.0000   1.0000   1.0000   1.0000   1.0000
     1.0000   1.0000   1.0000   1.0000   1.0000   1.0000   1.0000   1.0000
     1.0000   1.0003   1.0249   0.6230   0.0000   0.0000   0.0000   0.0000
     0.0000   0.0000   0.0000

          k = 0.1250 0.2165 0.0000 (  3241 PWs)   bands (ev):

   -87.1372 -50.3881 -50.3764 -50.3618 -25.7409 -10.8324  -9.4416  -9.0581
    -8.7891  -8.2624   2.6183   2.9866   3.3972   4.6024   5.2870   6.3881
     7.3801   7.7568   7.9090   8.7791   9.6733  10.2056  10.8147  11.0119
    12.7821  14.2643  15.1826

     occupation numbers 
     1.0000   1.0000   1.0000   1.0000   1.0000   1.0000   1.0000   1.0000
     1.0000   1.0000   1.0000   1.0000   1.0000   1.0000   1.0000   1.0000
     1.0001   1.0290   1.0769   0.0024   0.0000   0.0000   0.0000   0.0000
     0.0000   0.0000   0.0000

          k = 0.1250 0.2165 0.1151 (  3233 PWs)   bands (ev):

   -87.1372 -50.3881 -50.3764 -50.3618 -25.7409 -10.8341  -9.4335  -9.0567
    -8.7973  -8.2624   2.6130   2.9978   3.3972   4.6172   5.2873   6.3382
     7.3764   7.7339   7.9881   8.7103   9.7716  10.1523  10.8070  11.0080
    12.8566  14.2641  15.1852

     occupation numbers 
     1.0000   1.0000   1.0000   1.0000   1.0000   1.0000   1.0000   1.0000
     1.0000   1.0000   1.0000   1.0000   1.0000   1.0000   1.0000   1.0000
     1.0001   1.0232   1.0799   0.0075   0.0000   0.0000   0.0000   0.0000
     0.0000   0.0000   0.0000

          k = 0.1250 0.3608 0.0000 (  3230 PWs)   bands (ev):

   -87.1355 -50.3936 -50.3853 -50.3683 -25.5138 -10.3880  -9.8747  -9.3827
    -8.6525  -8.5863   2.4562   2.9695   3.6424   4.0500   4.8354   6.1420
     7.4085   7.6896   7.9269   9.2507   9.5506  10.0613  10.2401  12.0007
    12.7895  14.3138  16.1486

     occupation numbers 
     1.0000   1.0000   1.0000   1.0000   1.0000   1.0000   1.0000   1.0000
     1.0000   1.0000   1.0000   1.0000   1.0000   1.0000   1.0000   1.0000
     1.0002   1.0145   1.0806   0.0000   0.0000   0.0000   0.0000   0.0000
     0.0000   0.0000   0.0000

          k = 0.1250 0.3608 0.1151 (  3231 PWs)   bands (ev):

   -87.1355 -50.3936 -50.3853 -50.3683 -25.5138 -10.3883  -9.8766  -9.3781
    -8.6549  -8.5864   2.4535   2.9680   3.6418   4.0606   4.8354   6.1419
     7.4089   7.6921   7.9268   9.1442   9.7120   9.9256  10.2971  12.0023
    12.8280  14.3215  16.1261

     occupation numbers 
     1.0000   1.0000   1.0000   1.0000   1.0000   1.0000   1.0000   1.0000
     1.0000   1.0000   1.0000   1.0000   1.0000   1.0000   1.0000   1.0000
     1.0002   1.0149   1.0806   0.0000   0.0000   0.0000   0.0000   0.0000
     0.0000   0.0000   0.0000

          k = 0.1250 0.5052 0.0000 (  3243 PWs)   bands (ev):

   -87.1343 -50.4057 -50.3833 -50.3731 -25.3445 -10.4918  -9.9388  -9.3933
    -8.8076  -8.5342   1.9465   2.9743   3.7769   4.3899   4.6990   5.5762
     7.1751   7.5259   7.8715   8.9608   9.5772  10.0742  10.2612  13.0868
    13.5422  13.9701  16.9668

     occupation numbers 
     1.0000   1.0000   1.0000   1.0000   1.0000   1.0000   1.0000   1.0000
     1.0000   1.0000   1.0000   1.0000   1.0000   1.0000   1.0000   1.0000
     1.0000   1.0015   1.0661   0.0001   0.0000   0.0000   0.0000   0.0000
     0.0000   0.0000   0.0000

          k = 0.1250 0.5052 0.1151 (  3244 PWs)   bands (ev):

   -87.1343 -50.4057 -50.3833 -50.3731 -25.3445 -10.4917  -9.9393  -9.3928
    -8.8076  -8.5344   1.9507   2.9707   3.7755   4.3977   4.6984   5.5545
     7.1804   7.5238   7.8797   8.9612   9.6912   9.9075  10.3257  13.0673
    13.5393  13.9636  17.0278

     occupation numbers 
     1.0000   1.0000   1.0000   1.0000   1.0000   1.0000   1.0000   1.0000
     1.0000   1.0000   1.0000   1.0000   1.0000   1.0000   1.0000   1.0000
     1.0000   1.0014   1.0687   0.0001   0.0000   0.0000   0.0000   0.0000
     0.0000   0.0000   0.0000

          k = 0.2500 0.4330 0.0000 (  3245 PWs)   bands (ev):

   -87.1343 -50.3997 -50.3835 -50.3790 -25.3457 -10.2443  -9.9393  -9.3680
    -9.1516  -8.5337   2.4296   2.7500   3.5721   4.2225   4.5883   5.6442
     7.2509   7.5923   8.0172   9.7090   9.7875  10.1272  10.4843  12.0029
    12.8481  13.4459  17.0139

     occupation numbers 
     1.0000   1.0000   1.0000   1.0000   1.0000   1.0000   1.0000   1.0000
     1.0000   1.0000   1.0000   1.0000   1.0000   1.0000   1.0000   1.0000
     1.0000   1.0041   1.0692   0.0000   0.0000   0.0000   0.0000   0.0000
     0.0000   0.0000   0.0000

          k = 0.2500 0.4330 0.1151 (  3234 PWs)   bands (ev):

   -87.1343 -50.3997 -50.3834 -50.3789 -25.3457 -10.2434  -9.9413  -9.3663
    -9.1520  -8.5339   2.4302   2.7516   3.5735   4.2199   4.5836   5.6484
     7.2486   7.5892   8.0335   9.5592   9.8160  10.2818  10.4573  11.9850
    12.8605  13.4266  17.0786

     occupation numbers 
     1.0000   1.0000   1.0000   1.0000   1.0000   1.0000   1.0000   1.0000
     1.0000   1.0000   1.0000   1.0000   1.0000   1.0000   1.0000   1.0000
     1.0000   1.0039   1.0596   0.0000   0.0000   0.0000   0.0000   0.0000
     0.0000   0.0000   0.0000

          k = 0.2500 0.5774 0.0000 (  3233 PWs)   bands (ev):

   -87.1338 -50.4001 -50.3855 -50.3825 -25.2741 -10.2448  -9.8353  -9.4633
    -9.3500  -8.4820   2.3160   2.8235   3.3620   4.3449   4.7747   5.2371
     7.0232   7.7498   7.9712   9.7452   9.7920  10.4061  10.5607  12.0459
    12.6325  13.8603  17.8874

     occupation numbers 
     1.0000   1.0000   1.0000   1.0000   1.0000   1.0000   1.0000   1.0000
     1.0000   1.0000   1.0000   1.0000   1.0000   1.0000   1.0000   1.0000
     1.0000   1.0272   1.0827   0.0000   0.0000   0.0000   0.0000   0.0000
     0.0000   0.0000   0.0000

          k = 0.2500 0.5774 0.1151 (  3249 PWs)   bands (ev):

   -87.1338 -50.4002 -50.3855 -50.3826 -25.2741 -10.2447  -9.8356  -9.4628
    -9.3504  -8.4820   2.3188   2.8250   3.3655   4.3401   4.7725   5.2292
     7.0246   7.7471   7.9823   9.6640   9.7917  10.4455  10.6075  12.0717
    12.6322  13.8425  17.8640

     occupation numbers 
     1.0000   1.0000   1.0000   1.0000   1.0000   1.0000   1.0000   1.0000
     1.0000   1.0000   1.0000   1.0000   1.0000   1.0000   1.0000   1.0000
     1.0000   1.0265   1.0811   0.0000   0.0000   0.0000   0.0000   0.0000
     0.0000   0.0000   0.0000

          k = 0.0000-0.1443 0.1151 (  3236 PWs)   bands (ev):

   -87.1384 -50.3901 -50.3637 -50.3577 -25.8937 -11.1307  -9.4753  -8.8948
    -8.4011  -8.0520   2.5554   2.9615   3.2645   5.4875   5.9329   5.9832
     7.2467   7.4577   7.8338   8.2571  10.0060  10.3541  10.4692  11.8402
    13.0190  13.1424  15.3471

     occupation numbers 
     1.0000   1.0000   1.0000   1.0000   1.0000   1.0000   1.0000   1.0000
     1.0000   1.0000   1.0000   1.0000   1.0000   1.0000   1.0000   1.0000
     1.0000   1.0005   1.0533   0.6302   0.0000   0.0000   0.0000   0.0000
     0.0000   0.0000   0.0000

          k = 0.0000-0.2887 0.1151 (  3236 PWs)   bands (ev):

   -87.1367 -50.3874 -50.3827 -50.3623 -25.6756 -10.7037  -9.4662  -9.3322
    -8.7609  -8.2633   2.5273   3.0610   3.5052   4.1853   5.3968   6.3232
     7.3584   7.7319   7.9307   8.7259   9.4692  10.2730  10.3455  12.0319
    12.6308  14.5448  15.3082

     occupation numbers 
     1.0000   1.0000   1.0000   1.0000   1.0000   1.0000   1.0000   1.0000
     1.0000   1.0000   1.0000   1.0000   1.0000   1.0000   1.0000   1.0000
     1.0001   1.0228   1.0812   0.0059   0.0000   0.0000   0.0000   0.0000
     0.0000   0.0000   0.0000

          k = 0.0000-0.4330 0.1151 (  3243 PWs)   bands (ev):

   -87.1350 -50.4021 -50.3844 -50.3670 -25.4438 -10.3826 -10.1079  -9.3930
    -8.6060  -8.4644   2.0503   3.0289   3.6960   4.1658   5.1465   5.8386
     7.2572   7.5878   7.7889   8.5322   9.3981  10.1044  10.3770  12.5751
    13.8169  14.8904  16.6587

     occupation numbers 
     1.0000   1.0000   1.0000   1.0000   1.0000   1.0000   1.0000   1.0000
     1.0000   1.0000   1.0000   1.0000   1.0000   1.0000   1.0000   1.0000
     1.0000   1.0039   1.0384   0.0788   0.0000   0.0000   0.0000   0.0000
     0.0000   0.0000   0.0000

          k =-0.1250-0.3608 0.1151 (  3231 PWs)   bands (ev):

   -87.1355 -50.3936 -50.3853 -50.3683 -25.5138 -10.3879  -9.8777  -9.3777
    -8.6546  -8.5864   2.4511   2.9670   3.6390   4.0658   4.8336   6.1567
     7.4032   7.6892   7.9278   9.2090   9.5647   9.9652  10.3442  12.0042
    12.7677  14.3244  16.1739

     occupation numbers 
     1.0000   1.0000   1.0000   1.0000   1.0000   1.0000   1.0000   1.0000
     1.0000   1.0000   1.0000   1.0000   1.0000   1.0000   1.0000   1.0000
     1.0002   1.0144   1.0807   0.0000   0.0000   0.0000   0.0000   0.0000
     0.0000   0.0000   0.0000

          k =-0.1250-0.5052 0.1151 (  3244 PWs)   bands (ev):

   -87.1343 -50.4057 -50.3833 -50.3731 -25.3445 -10.4914  -9.9398  -9.3927
    -8.8077  -8.5341   1.9488   2.9718   3.7770   4.3891   4.6980   5.5712
     7.1744   7.5227   7.8874   8.9823   9.5663  10.0076  10.3277  13.0233
    13.5425  13.9560  17.1308

     occupation numbers 
     1.0000   1.0000   1.0000   1.0000   1.0000   1.0000   1.0000   1.0000
     1.0000   1.0000   1.0000   1.0000   1.0000   1.0000   1.0000   1.0000
     1.0000   1.0014   1.0711   0.0000   0.0000   0.0000   0.0000   0.0000
     0.0000   0.0000   0.0000

 ------ SPIN DOWN ----------


          k = 0.0000 0.0000 0.0000 (  3279 PWs)   bands (ev):

   -86.7547 -50.0196 -50.0196 -49.9395 -25.9926 -11.2551  -9.4994  -8.9130
    -7.9724  -7.9724   2.4817   3.2680   3.2680   5.7915   6.5905   6.5905
     7.0837   7.2752   7.2752   8.6320   9.9026  10.7290  10.7290  12.4374
    12.4374  13.4469  16.0391

     occupation numbers 
     1.0000   1.0000   1.0000   1.0000   1.0000   1.0000   1.0000   1.0000
     1.0000   1.0000   1.0000   1.0000   1.0000   1.0000   1.0000   1.0000
     1.0000   1.0000   1.0000   0.0234   0.0000   0.0000   0.0000   0.0000
     0.0000   0.0000   0.0000

          k = 0.0000 0.0000 0.1151 (  3249 PWs)   bands (ev):

   -86.7547 -50.0194 -50.0194 -49.9394 -25.9926 -11.2576  -9.4796  -8.9318
    -7.9724  -7.9724   2.5304   3.2681   3.2681   5.5114   6.5904   6.5904
     7.2752   7.2752   7.4487   8.5277   9.9610  10.7298  10.7298  12.4369
    12.4369  13.1396  15.9609

     occupation numbers 
     1.0000   1.0000   1.0000   1.0000   1.0000   1.0000   1.0000   1.0000
     1.0000   1.0000   1.0000   1.0000   1.0000   1.0000   1.0000   1.0000
     1.0000   1.0000   1.0004   0.0828   0.0000   0.0000   0.0000   0.0000
     0.0000   0.0000   0.0000

          k = 0.0000 0.1443 0.0000 (  3241 PWs)   bands (ev):

   -86.7540 -50.0275 -50.0213 -49.9382 -25.9055 -11.0903  -9.4561  -8.8784
    -8.4142  -8.0634   2.6480   3.0730   3.3663   5.5715   6.0776   6.1584
     7.5310   7.6139   7.7058   8.7127  10.1304  10.3684  10.6281  11.8060
    12.9937  13.2082  15.6563

     occupation numbers 
     1.0000   1.0000   1.0000   1.0000   1.0000   1.0000   1.0000   1.0000
     1.0000   1.0000   1.0000   1.0000   1.0000   1.0000   1.0000   1.0000
     1.0016   1.0056   1.0173   0.0072   0.0000   0.0000   0.0000   0.0000
     0.0000   0.0000   0.0000

          k = 0.0000 0.1443 0.1151 (  3236 PWs)   bands (ev):

   -86.7540 -50.0275 -50.0214 -49.9381 -25.9055 -11.0926  -9.4398  -8.8937
    -8.4139  -8.0634   2.6785   3.0704   3.3664   5.5846   5.9676   6.0775
     7.5193   7.7057   7.9297   8.5725  10.0953  10.4392  10.6284  11.8047
    12.9937  13.1530  15.3125

     occupation numbers 
     1.0000   1.0000   1.0000   1.0000   1.0000   1.0000   1.0000   1.0000
     1.0000   1.0000   1.0000   1.0000   1.0000   1.0000   1.0000   1.0000
     1.0013   1.0173   1.0810   0.0497   0.0000   0.0000   0.0000   0.0000
     0.0000   0.0000   0.0000

          k = 0.0000 0.2887 0.0000 (  3230 PWs)   bands (ev):

   -86.7522 -50.0471 -50.0259 -49.9353 -25.6867 -10.6644  -9.4494  -9.3308
    -8.7580  -8.2753   2.6184   3.1685   3.5985   4.2577   5.4846   6.4110
     7.6696   8.0110   8.2853   8.7908   9.5880  10.2864  10.4959  12.0038
    12.5985  14.5213  15.3000

     occupation numbers 
     1.0000   1.0000   1.0000   1.0000   1.0000   1.0000   1.0000   1.0000
     1.0000   1.0000   1.0000   1.0000   1.0000   1.0000   1.0000   1.0000
     1.0114   1.0722   0.5520   0.0020   0.0000   0.0000   0.0000   0.0000
     0.0000   0.0000   0.0000

          k = 0.0000 0.2887 0.1151 (  3236 PWs)   bands (ev):

   -86.7522 -50.0470 -50.0261 -49.9353 -25.6867 -10.6659  -9.4508  -9.3212
    -8.7650  -8.2753   2.6095   3.1807   3.5986   4.2720   5.4844   6.3798
     7.6596   8.0108   8.4141   8.5936   9.7476  10.1978  10.4963  11.9830
    12.7289  14.5221  15.6082

     occupation numbers 
     1.0000   1.0000   1.0000   1.0000   1.0000   1.0000   1.0000   1.0000
     1.0000   1.0000   1.0000   1.0000   1.0000   1.0000   1.0000   1.0000
     1.0101   1.0723   0.2401   0.0384   0.0000   0.0000   0.0000   0.0000
     0.0000   0.0000   0.0000

          k = 0.0000 0.4330 0.0000 (  3242 PWs)   bands (ev):

   -86.7505 -50.0665 -50.0308 -49.9324 -25.4542 -10.3874 -10.0822  -9.3488
    -8.6119  -8.4767   2.1193   3.0895   3.7863   4.2898   5.2010   5.9170
     7.6276   7.9132   8.1764   8.4791   9.4806  10.1980  10.5238  12.6541
    13.7867  14.8825  16.3698

     occupation numbers 
     1.0000   1.0000   1.0000   1.0000   1.0000   1.0000   1.0000   1.0000
     1.0000   1.0000   1.0000   1.0000   1.0000   1.0000   1.0000   1.0000
     1.0067   1.0779   0.8403   0.1358   0.0000   0.0000   0.0000   0.0000
     0.0000   0.0000   0.0000

          k = 0.0000 0.4330 0.1151 (  3243 PWs)   bands (ev):

   -86.7505 -50.0666 -50.0308 -49.9323 -25.4542 -10.3870 -10.0838  -9.3464
    -8.6132  -8.4767   2.1227   3.0820   3.7865   4.3014   5.2007   5.8962
     7.6415   7.9132   8.1684   8.4632   9.7755   9.8810  10.5251  12.7322
    13.7640  14.8795  16.3403

     occupation numbers 
     1.0000   1.0000   1.0000   1.0000   1.0000   1.0000   1.0000   1.0000
     1.0000   1.0000   1.0000   1.0000   1.0000   1.0000   1.0000   1.0000
     1.0081   1.0779   0.8587   0.1576   0.0000   0.0000   0.0000   0.0000
     0.0000   0.0000   0.0000

          k = 0.0000-0.5774 0.0000 (  3254 PWs)   bands (ev):

   -86.7498 -50.0747 -50.0327 -49.9312 -25.3533 -10.6951  -9.8756  -9.3763
    -8.5574  -8.5421   1.7302   3.1989   3.8303   4.4869   5.1713   5.5959
     7.5152   7.7890   8.0817   8.2085   9.4271  10.2953  10.5710  13.3267
    14.2971  14.7267  16.5745

     occupation numbers 
     1.0000   1.0000   1.0000   1.0000   1.0000   1.0000   1.0000   1.0000
     1.0000   1.0000   1.0000   1.0000   1.0000   1.0000   1.0000   1.0000
     1.0012   1.0384   1.0131   0.7609   0.0000   0.0000   0.0000   0.0000
     0.0000   0.0000   0.0000

          k = 0.0000-0.5774 0.1151 (  3256 PWs)   bands (ev):

   -86.7498 -50.0747 -50.0328 -49.9312 -25.3533 -10.6950  -9.8758  -9.3764
    -8.5574  -8.5419   1.7344   3.1910   3.8305   4.5017   5.1709   5.5615
     7.5270   7.7890   8.0887   8.2132   9.5438  10.1852  10.5724  13.2399
    14.2791  14.7230  16.8472

     occupation numbers 
     1.0000   1.0000   1.0000   1.0000   1.0000   1.0000   1.0000   1.0000
     1.0000   1.0000   1.0000   1.0000   1.0000   1.0000   1.0000   1.0000
     1.0015   1.0384   1.0039   0.7488   0.0000   0.0000   0.0000   0.0000
     0.0000   0.0000   0.0000

          k = 0.1250 0.2165 0.0000 (  3241 PWs)   bands (ev):

   -86.7528 -50.0405 -50.0256 -49.9361 -25.7522 -10.7943  -9.4023  -9.0731
    -8.7908  -8.2745   2.7076   3.1081   3.4927   4.6805   5.3844   6.4623
     7.6989   8.0036   8.2394   8.8469   9.8312  10.3586  10.7996  10.9742
    12.7879  14.2399  15.1724

     occupation numbers 
     1.0000   1.0000   1.0000   1.0000   1.0000   1.0000   1.0000   1.0000
     1.0000   1.0000   1.0000   1.0000   1.0000   1.0000   1.0000   1.0000
     1.0160   1.0752   0.6787   0.0007   0.0000   0.0000   0.0000   0.0000
     0.0000   0.0000   0.0000

          k = 0.1250 0.2165 0.1151 (  3233 PWs)   bands (ev):

   -86.7527 -50.0404 -50.0256 -49.9361 -25.7522 -10.7960  -9.3937  -9.0715
    -8.7996  -8.2745   2.7013   3.1203   3.4929   4.6975   5.3847   6.4081
     7.6959   7.9695   8.3826   8.7341   9.9201  10.2873  10.8108  10.9704
    12.8658  14.2396  15.1749

     occupation numbers 
     1.0000   1.0000   1.0000   1.0000   1.0000   1.0000   1.0000   1.0000
     1.0000   1.0000   1.0000   1.0000   1.0000   1.0000   1.0000   1.0000
     1.0155   1.0828   0.3051   0.0052   0.0000   0.0000   0.0000   0.0000
     0.0000   0.0000   0.0000

          k = 0.1250 0.3608 0.0000 (  3230 PWs)   bands (ev):

   -86.7510 -50.0579 -50.0322 -49.9332 -25.5244 -10.3531  -9.8885  -9.3382
    -8.6587  -8.5992   2.5313   3.0365   3.7318   4.1675   4.9160   6.2222
     7.7555   8.0857   8.2499   9.2208   9.6677  10.2116  10.2442  11.9812
    12.7836  14.3004  16.1415

     occupation numbers 
     1.0000   1.0000   1.0000   1.0000   1.0000   1.0000   1.0000   1.0000
     1.0000   1.0000   1.0000   1.0000   1.0000   1.0000   1.0000   1.0000
     1.0286   1.0079   0.6500   0.0000   0.0000   0.0000   0.0000   0.0000
     0.0000   0.0000   0.0000

          k = 0.1250 0.3608 0.1151 (  3231 PWs)   bands (ev):

   -86.7510 -50.0579 -50.0322 -49.9332 -25.5244 -10.3533  -9.8904  -9.3334
    -8.6612  -8.5993   2.5287   3.0348   3.7309   4.1790   4.9159   6.2225
     7.7571   8.0904   8.2458   9.1398   9.8406   9.9681  10.3695  11.9816
    12.8268  14.3082  16.1219

     occupation numbers 
     1.0000   1.0000   1.0000   1.0000   1.0000   1.0000   1.0000   1.0000
     1.0000   1.0000   1.0000   1.0000   1.0000   1.0000   1.0000   1.0000
     1.0291   1.0016   0.6612   0.0000   0.0000   0.0000   0.0000   0.0000
     0.0000   0.0000   0.0000

          k = 0.1250 0.5052 0.0000 (  3243 PWs)   bands (ev):

   -86.7498 -50.0702 -50.0371 -49.9312 -25.3545 -10.5078  -9.9048  -9.3448
    -8.8213  -8.5414   2.0088   3.0290   3.8566   4.5004   4.7609   5.6612
     7.6518   7.8702   8.1757   8.9201   9.6351  10.2114  10.3711  13.0741
    13.5119  13.9587  16.9691

     occupation numbers 
     1.0000   1.0000   1.0000   1.0000   1.0000   1.0000   1.0000   1.0000
     1.0000   1.0000   1.0000   1.0000   1.0000   1.0000   1.0000   1.0000
     1.0092   1.0657   0.8419   0.0002   0.0000   0.0000   0.0000   0.0000
     0.0000   0.0000   0.0000

          k = 0.1250 0.5052 0.1151 (  3244 PWs)   bands (ev):

   -86.7498 -50.0702 -50.0371 -49.9312 -25.3545 -10.5077  -9.9052  -9.3443
    -8.8213  -8.5415   2.0131   3.0252   3.8551   4.5085   4.7605   5.6386
     7.6612   7.8675   8.1820   8.9202   9.7322  10.0605  10.4349  13.0539
    13.5097  13.9521  17.0296

     occupation numbers 
     1.0000   1.0000   1.0000   1.0000   1.0000   1.0000   1.0000   1.0000
     1.0000   1.0000   1.0000   1.0000   1.0000   1.0000   1.0000   1.0000
     1.0103   1.0648   0.8269   0.0002   0.0000   0.0000   0.0000   0.0000
     0.0000   0.0000   0.0000

          k = 0.2500 0.4330 0.0000 (  3245 PWs)   bands (ev):

   -86.7498 -50.0641 -50.0431 -49.9312 -25.3558 -10.2513  -9.9133  -9.3214
    -9.1650  -8.5407   2.4901   2.8162   3.6260   4.3238   4.6875   5.7282
     7.7626   7.9234   8.2949   9.8255   9.9370  10.1341  10.4546  11.9813
    12.8300  13.4436  17.0176

     occupation numbers 
     1.0000   1.0000   1.0000   1.0000   1.0000   1.0000   1.0000   1.0000
     1.0000   1.0000   1.0000   1.0000   1.0000   1.0000   1.0000   1.0000
     1.0306   1.0800   0.5255   0.0000   0.0000   0.0000   0.0000   0.0000
     0.0000   0.0000   0.0000

          k = 0.2500 0.4330 0.1151 (  3234 PWs)   bands (ev):

   -86.7498 -50.0641 -50.0431 -49.9311 -25.3558 -10.2506  -9.9151  -9.3195
    -9.1656  -8.5410   2.4909   2.8179   3.6275   4.3209   4.6819   5.7336
     7.7600   7.9204   8.3139   9.6480   9.9787  10.3069  10.4205  11.9641
    12.8421  13.4241  17.0823

     occupation numbers 
     1.0000   1.0000   1.0000   1.0000   1.0000   1.0000   1.0000   1.0000
     1.0000   1.0000   1.0000   1.0000   1.0000   1.0000   1.0000   1.0000
     1.0298   1.0794   0.4741   0.0000   0.0000   0.0000   0.0000   0.0000
     0.0000   0.0000   0.0000

          k = 0.2500 0.5774 0.0000 (  3233 PWs)   bands (ev):

   -86.7493 -50.0646 -50.0497 -49.9302 -25.2839 -10.2581  -9.8066  -9.4757
    -9.3011  -8.4893   2.3752   2.8835   3.4130   4.4285   4.8716   5.3218
     7.5661   8.0673   8.2679   9.8974   9.9365  10.3808  10.5353  12.0278
    12.6050  13.8597  17.8779

     occupation numbers 
     1.0000   1.0000   1.0000   1.0000   1.0000   1.0000   1.0000   1.0000
     1.0000   1.0000   1.0000   1.0000   1.0000   1.0000   1.0000   1.0000
     1.0028   1.0299   0.6003   0.0000   0.0000   0.0000   0.0000   0.0000
     0.0000   0.0000   0.0000

          k = 0.2500 0.5774 0.1151 (  3249 PWs)   bands (ev):

   -86.7493 -50.0647 -50.0498 -49.9303 -25.2839 -10.2580  -9.8069  -9.4754
    -9.3014  -8.4893   2.3781   2.8850   3.4165   4.4234   4.8690   5.3140
     7.5682   8.0642   8.2803   9.7885   9.9529  10.4080  10.6031  12.0546
    12.6058  13.8396  17.8517

     occupation numbers 
     1.0000   1.0000   1.0000   1.0000   1.0000   1.0000   1.0000   1.0000
     1.0000   1.0000   1.0000   1.0000   1.0000   1.0000   1.0000   1.0000
     1.0029   1.0332   0.5657   0.0000   0.0000   0.0000   0.0000   0.0000
     0.0000   0.0000   0.0000

          k = 0.0000-0.1443 0.1151 (  3236 PWs)   bands (ev):

   -86.7540 -50.0275 -50.0214 -49.9381 -25.9055 -11.0926  -9.4399  -8.8937
    -8.4139  -8.0634   2.6796   3.0681   3.3663   5.5661   5.9980   6.0776
     7.5058   7.7057   7.9231   8.5919  10.0929  10.4181  10.6285  11.8080
    12.9932  13.1560  15.3600

     occupation numbers 
     1.0000   1.0000   1.0000   1.0000   1.0000   1.0000   1.0000   1.0000
     1.0000   1.0000   1.0000   1.0000   1.0000   1.0000   1.0000   1.0000
     1.0011   1.0173   1.0799   0.0393   0.0000   0.0000   0.0000   0.0000
     0.0000   0.0000   0.0000

          k = 0.0000-0.2887 0.1151 (  3236 PWs)   bands (ev):

   -86.7522 -50.0470 -50.0261 -49.9353 -25.6867 -10.6658  -9.4532  -9.3192
    -8.7647  -8.2753   2.6109   3.1693   3.5985   4.2800   5.4846   6.4027
     7.6528   8.0108   8.3074   8.7527   9.6061  10.2736  10.4960  12.0024
    12.6337  14.5212  15.2995

     occupation numbers 
     1.0000   1.0000   1.0000   1.0000   1.0000   1.0000   1.0000   1.0000
     1.0000   1.0000   1.0000   1.0000   1.0000   1.0000   1.0000   1.0000
     1.0093   1.0723   0.4918   0.0038   0.0000   0.0000   0.0000   0.0000
     0.0000   0.0000   0.0000

          k = 0.0000-0.4330 0.1151 (  3243 PWs)   bands (ev):

   -86.7505 -50.0666 -50.0308 -49.9323 -25.4542 -10.3859 -10.0853  -9.3463
    -8.6127  -8.4767   2.1185   3.0831   3.7864   4.2944   5.2009   5.9278
     7.6327   7.9131   8.1616   8.4982   9.4818  10.1813  10.5246  12.5745
    13.7801  14.8802  16.6652

     occupation numbers 
     1.0000   1.0000   1.0000   1.0000   1.0000   1.0000   1.0000   1.0000
     1.0000   1.0000   1.0000   1.0000   1.0000   1.0000   1.0000   1.0000
     1.0072   1.0779   0.8738   0.1125   0.0000   0.0000   0.0000   0.0000
     0.0000   0.0000   0.0000

          k =-0.1250-0.3608 0.1151 (  3231 PWs)   bands (ev):

   -86.7510 -50.0579 -50.0322 -49.9332 -25.5244 -10.3528  -9.8914  -9.3330
    -8.6609  -8.5993   2.5260   3.0340   3.7284   4.1836   4.9141   6.2389
     7.7509   8.0880   8.2436   9.1903   9.6638  10.0696  10.4016  11.9847
    12.7642  14.3109  16.1637

     occupation numbers 
     1.0000   1.0000   1.0000   1.0000   1.0000   1.0000   1.0000   1.0000
     1.0000   1.0000   1.0000   1.0000   1.0000   1.0000   1.0000   1.0000
     1.0274   1.0048   0.6673   0.0000   0.0000   0.0000   0.0000   0.0000
     0.0000   0.0000   0.0000

          k =-0.1250-0.5052 0.1151 (  3244 PWs)   bands (ev):

   -86.7498 -50.0702 -50.0371 -49.9312 -25.3545 -10.5075  -9.9057  -9.3442
    -8.8213  -8.5413   2.0112   3.0263   3.8567   4.4991   4.7599   5.6569
     7.6532   7.8672   8.1917   8.9363   9.6246  10.1535  10.4308  13.0115
    13.5133  13.9424  17.1291

     occupation numbers 
     1.0000   1.0000   1.0000   1.0000   1.0000   1.0000   1.0000   1.0000
     1.0000   1.0000   1.0000   1.0000   1.0000   1.0000   1.0000   1.0000
     1.0093   1.0647   0.8035   0.0001   0.0000   0.0000   0.0000   0.0000
     0.0000   0.0000   0.0000

     the Fermi energy is     8.3422 ev

!    total energy              =    -572.93518008 Ry
     total all-electron energy =     -4292.046016 Ry
     estimated scf accuracy    <       0.00000002 Ry
     smearing contrib. (-TS)   =       0.00394533 Ry
     internal energy E=F+TS    =    -572.93912541 Ry

     The total energy is F=E-TS. E is the sum of the following terms:
     one-electron contribution =    -512.26022392 Ry
     hartree contribution      =     273.53750217 Ry
     xc contribution           =     -56.70759173 Ry
     ewald contribution        =    -115.31585632 Ry
     one-center paw contrib.   =    -162.19295561 Ry
      -> PAW hartree energy AE =     309.91925221 Ry
      -> PAW hartree energy PS =    -308.56322799 Ry
      -> PAW xc energy AE      =    -217.02091350 Ry
      -> PAW xc energy PS      =      53.47193367 Ry
      -> total E_H with PAW    =     274.89352639 Ry
      -> total E_XC with PAW   =    -220.25657156 Ry

     total magnetization       =     0.37 Bohr mag/cell
     absolute magnetization    =     0.43 Bohr mag/cell

     convergence has been achieved in  30 iterations

     Forces acting on atoms (cartesian axes, Ry/au):

     atom    1 type  1   force =     0.00000000    0.00000000    0.03870112
     atom    2 type  2   force =     0.00000000    0.00000000   -0.02307292
     atom    3 type  2   force =     0.00000000    0.00000000   -0.04807019
     atom    4 type  3   force =     0.00000000    0.00000000    0.03244199
     The non-local contrib.  to forces
     atom    1 type  1   force =     0.00000000    0.00000000    0.01378478
     atom    2 type  2   force =    -0.00000000   -0.00000000   -1.06753695
     atom    3 type  2   force =     0.00000000   -0.00000000    0.51249816
     atom    4 type  3   force =     0.00000000    0.00000000    0.03376606
     The ionic contribution  to forces
     atom    1 type  1   force =    -0.00000000   -0.00000000   13.27790580
     atom    2 type  2   force =     0.00000000   -0.00000000   35.48144315
     atom    3 type  2   force =    -0.00000000    0.00000000  -26.31241747
     atom    4 type  3   force =     0.00000000   -0.00000000  -22.44693148
     The local contribution  to forces
     atom    1 type  1   force =    -0.00000000   -0.00000000  -13.25236599
     atom    2 type  2   force =     0.00000001   -0.00000001  -34.44646598
     atom    3 type  2   force =    -0.00000001    0.00000001   25.75582918
     atom    4 type  3   force =     0.00000000    0.00000000   22.44528812
     The core correction contribution to forces
     atom    1 type  1   force =     0.00000000   -0.00000000   -0.00041205
     atom    2 type  2   force =    -0.00000000    0.00000000    0.00936249
     atom    3 type  2   force =     0.00000000   -0.00000000   -0.00395490
     atom    4 type  3   force =    -0.00000000    0.00000000    0.00027168
     The Hubbard contrib.    to forces
     atom    1 type  1   force =     0.00000000    0.00000000    0.00000000
     atom    2 type  2   force =     0.00000000    0.00000000    0.00000000
     atom    3 type  2   force =     0.00000000    0.00000000    0.00000000
     atom    4 type  3   force =     0.00000000    0.00000000    0.00000000
     The SCF correction term to forces
     atom    1 type  1   force =    -0.00000000    0.00000000   -0.00023960
     atom    2 type  2   force =    -0.00000000    0.00000000    0.00009618
     atom    3 type  2   force =     0.00000000   -0.00000000   -0.00005334
     atom    4 type  3   force =    -0.00000000   -0.00000000    0.00001944

     Total force =     0.073440     Total SCF correction =     0.000264

     Writing all to output data dir ./out/pw.save/ :
     XML data file, charge density, pseudopotentials, collected wavefunctions
 
     init_run     :     12.71s CPU      3.46s WALL (       1 calls)
     electrons    :    168.62s CPU     45.06s WALL (       1 calls)
     forces       :      0.59s CPU      0.58s WALL (       1 calls)

     Called by init_run:
     wfcinit      :      0.26s CPU      0.34s WALL (       1 calls)
     wfcinit:atom :      0.05s CPU      0.05s WALL (      50 calls)
     wfcinit:wfcr :      0.16s CPU      0.21s WALL (      50 calls)
     potinit      :     11.81s CPU      2.46s WALL (       1 calls)
     hinit0       :      0.53s CPU      0.52s WALL (       1 calls)

     Called by electrons:
     c_bands      :     17.73s CPU     18.08s WALL (      30 calls)
     sum_band     :      3.89s CPU      3.92s WALL (      30 calls)
     v_of_rho     :      0.49s CPU      0.26s WALL (      31 calls)
     v_h          :      0.35s CPU      0.05s WALL (      31 calls)
     v_xc         :      0.15s CPU      0.21s WALL (      32 calls)
     newd         :      0.97s CPU      0.78s WALL (      31 calls)
                                        0.78s GPU  (      31 calls)
     PAW_pot      :    148.86s CPU     21.68s WALL (      31 calls)
     mix_rho      :      0.93s CPU      0.97s WALL (      30 calls)

     Called by c_bands:
     init_us_2    :      1.23s CPU      1.22s WALL (    3100 calls)
     cegterg      :     15.27s CPU     15.60s WALL (    1500 calls)

     Called by sum_band:
     sum_band:wei :      0.04s CPU      0.04s WALL (      30 calls)
                                        0.04s GPU  (      30 calls)
     sum_band:loo :      2.05s CPU      2.06s WALL (      30 calls)
                                        2.06s GPU  (      30 calls)
     sum_band:buf :      0.26s CPU      0.30s WALL (    1500 calls)
                                        0.28s GPU  (    1500 calls)
     sum_band:ini :      0.58s CPU      0.60s WALL (    1500 calls)
                                        0.58s GPU  (    1500 calls)
     sum_band:cal :      0.06s CPU      0.09s WALL (    1500 calls)
                                        0.07s GPU  (    1500 calls)
     sum_band:bec :      0.32s CPU      0.35s WALL (    1500 calls)
                                        0.33s GPU  (    1500 calls)
     addusdens    :      1.59s CPU      1.60s WALL (      30 calls)
                                        1.60s GPU  (      30 calls)
     addusd:skk   :      0.00s CPU      0.01s WALL (      90 calls)
                                        0.01s GPU  (      90 calls)

     Called by *egterg:
     cdiaghg      :      5.22s CPU      5.43s WALL (    6195 calls)
                                        5.35s GPU  (    6195 calls)
     cegterg:over :      1.18s CPU      1.23s WALL (    4695 calls)
     cegterg:upda :      0.90s CPU      0.91s WALL (    4695 calls)
     cegterg:last :      0.15s CPU      0.16s WALL (    2659 calls)
     h_psi        :      5.60s CPU      5.84s WALL (    6245 calls)
                                        5.76s GPU  (    6245 calls)
     s_psi        :      0.97s CPU      1.02s WALL (    6245 calls)
     g_psi        :      0.02s CPU      0.12s WALL (    4695 calls)
                                        0.06s GPU  (    4695 calls)

     Called by h_psi:
     h_psi:calbec :      0.19s CPU      0.35s WALL (    6245 calls)
                                        0.27s GPU  (    6245 calls)
     vloc_psi     :      3.85s CPU      4.00s WALL (    6245 calls)
                                        3.92s GPU  (    6245 calls)
     add_vuspsi   :      0.88s CPU      1.05s WALL (    6245 calls)
                                        0.97s GPU  (    6245 calls)

     General routines
     calbec       :      0.21s CPU      0.24s WALL (    7945 calls)
     fft          :      3.29s CPU      0.94s WALL (     788 calls)
                                        0.03s GPU  (     726 calls)
     ffts         :      3.94s CPU      0.80s WALL (    1185 calls)
                                        0.03s GPU  (    1123 calls)
     fftw         :      0.36s CPU      1.36s WALL (   21594 calls)
                                        1.12s GPU  (   21594 calls)
     interpolate  :      7.42s CPU      1.70s WALL (      62 calls)
 
     Parallel routines

     PAW routines
     PAW_pot      :    148.86s CPU     21.68s WALL (      31 calls)
     PAW_symme    :      0.01s CPU      0.01s WALL (      61 calls)
 
     PWSCF        :   3m 2.91s CPU     49.73s WALL

 
   This run was terminated on:   5:39:25  12Jul2026            

=------------------------------------------------------------------------------=
   JOB DONE.
=------------------------------------------------------------------------------=
Warning: ieee_divide_by_zero is signaling
Warning: ieee_inexact is signaling
FORTRAN STOP
