
     Program PWSCF v.7.3.1 starts on 12Jul2026 at  5:38:45 

     This program is part of the open-source Quantum ESPRESSO suite
     for quantum simulation of materials; please cite
         "P. Giannozzi et al., J. Phys.:Condens. Matter 21 395502 (2009);
         "P. Giannozzi et al., J. Phys.:Condens. Matter 29 465901 (2017);
         "P. Giannozzi et al., J. Chem. Phys. 152 154105 (2020);
          URL http://www.quantum-espresso.org", 
     in publications or presentations arising from this work. More details at
     http://www.quantum-espresso.org/quote

     Parallel version (MPI & OpenMP), running on      14 processor cores
     Number of MPI processes:                 1
     Threads/MPI process:                    14

     MPI processes distributed on     1 nodes
     1360544 MiB available memory on the printing compute node when the environment starts
 
     Reading input from pw.in

     Current dimensions of program PWSCF are:
     Max number of different atomic species (ntypx) = 10
     Max number of k-points (npk) =  40000
     Max angular momentum in pseudopotentials (lmaxx) =  4
     file Co.pbe-spn-kjpaw_psl.0.3.1.UPF: wavefunction(s)  3P 3D renormalized
     file O.pbe-n-kjpaw_psl.1.0.0.UPF: wavefunction(s)  2S 2P renormalized
     file K.pbe-spn-kjpaw_psl.1.0.0.UPF: wavefunction(s)  3S renormalized
 
     Subspace diagonalization in iterative solution of the eigenvalue problem:
     a serial algorithm will be used

 
     G-vector sticks info
     --------------------
     sticks:   dense  smooth     PW     G-vecs:    dense   smooth      PW
     Sum        1003     499    151                86309    30591    5001
 
     Using Slab Decomposition
 


     bravais-lattice index     =            4
     lattice parameter (alat)  =       5.4802  a.u.
     unit-cell volume          =     486.5847 (a.u.)^3
     number of atoms/cell      =            4
     number of atomic types    =            3
     number of electrons       =        38.00
     number of Kohn-Sham states=           27
     kinetic-energy cutoff     =      60.0000  Ry
     charge density cutoff     =     480.0000  Ry
     scf convergence threshold =      1.0E-07
     mixing beta               =       0.3000
     number of iterations used =            8  local-TF  mixing
     Exchange-correlation= SLA  PW   PBX  PBC
                           (   1   4   3   4   0   0   0)

     GPU acceleration is ACTIVE.  1 visible GPUs per MPI rank
     GPU-aware MPI enabled


     GPU used by master process:

        Device Number: 0
        Device name: NVIDIA A100-SXM4-80GB
        Compute capability : 80
        Ratio of single to double precision performance  : 2
        Memory Clock Rate (KHz): 1593000
        Memory Bus Width (bits): 5120
        Peak Memory Bandwidth (GB/s): ******

     celldm(1)=   5.480206  celldm(2)=   0.000000  celldm(3)=   3.413793
     celldm(4)=   0.000000  celldm(5)=   0.000000  celldm(6)=   0.000000

     crystal axes: (cart. coord. in units of alat)
               a(1) = (   1.000000   0.000000   0.000000 )  
               a(2) = (  -0.500000   0.866025   0.000000 )  
               a(3) = (   0.000000   0.000000   3.413793 )  

     reciprocal axes: (cart. coord. in units 2 pi/alat)
               b(1) = (  1.000000  0.577350 -0.000000 )  
               b(2) = (  0.000000  1.154701  0.000000 )  
               b(3) = (  0.000000 -0.000000  0.292929 )  


     PseudoPot. # 1 for Co read from file:
     ../../pseudo/Co.pbe-spn-kjpaw_psl.0.3.1.UPF
     MD5 check sum: 3c0a43779828c046024e4f3be63f8e67
     Pseudo is Projector augmented-wave + core cor, Zval = 17.0
     Generated using &quot;atomic&quot; code by A. Dal Corso  v.6.2.2
     Shape of augmentation charge: PSQ
     Using radial grid of 1193 points,  6 beta functions with: 
                l(1) =   0
                l(2) =   0
                l(3) =   1
                l(4) =   1
                l(5) =   2
                l(6) =   2
     Q(r) pseudized with 0 coefficients 


     PseudoPot. # 2 for O  read from file:
     ../../pseudo/O.pbe-n-kjpaw_psl.1.0.0.UPF
     MD5 check sum: e99d9cef9b487d1ca56f5b95ecd0fd7a
     Pseudo is Projector augmented-wave + core cor, Zval =  6.0
     Generated using &quot;atomic&quot; code by A. Dal Corso  v.6.3
     Shape of augmentation charge: PSQ
     Using radial grid of 1095 points,  4 beta functions with: 
                l(1) =   0
                l(2) =   0
                l(3) =   1
                l(4) =   1
     Q(r) pseudized with 0 coefficients 


     PseudoPot. # 3 for K  read from file:
     ../../pseudo/K.pbe-spn-kjpaw_psl.1.0.0.UPF
     MD5 check sum: 34cc42130a09071ebe376fd42eb21491
     Pseudo is Projector augmented-wave + core cor, Zval =  9.0
     Generated using &quot;atomic&quot; code by A. Dal Corso  v.6.2.2
     Shape of augmentation charge: PSQ
     Using radial grid of 1165 points,  6 beta functions with: 
                l(1) =   0
                l(2) =   0
                l(3) =   1
                l(4) =   1
                l(5) =   2
                l(6) =   2
     Q(r) pseudized with 0 coefficients 


     atomic species   valence    mass     pseudopotential
     Co               17.00    58.93300     Co( 1.00)
     O                 6.00    15.99900     O ( 1.00)
     K                 9.00    39.09830     K ( 1.00)

     Starting magnetic structure 
     atomic species   magnetization
     Co              0.300
     O               0.000
     K               0.000

      6 Sym. Ops. (no inversion) found


                                    s                        frac. trans.

      isym =  1     identity                                     

 cryst.   s( 1) = (     1          0          0      )
                  (     0          1          0      )
                  (     0          0          1      )

 cart.    s( 1) = (  1.0000000  0.0000000  0.0000000 )
                  (  0.0000000  1.0000000  0.0000000 )
                  (  0.0000000  0.0000000  1.0000000 )


      isym =  2     120 deg rotation - cryst. axis [0,0,1]       

 cryst.   s( 2) = (     0          1          0      )
                  (    -1         -1          0      )
                  (     0          0          1      )

 cart.    s( 2) = ( -0.5000000 -0.8660254  0.0000000 )
                  (  0.8660254 -0.5000000  0.0000000 )
                  (  0.0000000  0.0000000  1.0000000 )


      isym =  3     120 deg rotation - cryst. axis [0,0,-1]      

 cryst.   s( 3) = (    -1         -1          0      )
                  (     1          0          0      )
                  (     0          0          1      )

 cart.    s( 3) = ( -0.5000000  0.8660254  0.0000000 )
                  ( -0.8660254 -0.5000000  0.0000000 )
                  (  0.0000000  0.0000000  1.0000000 )


      isym =  4     inv. 180 deg rotation - cart. axis [1,0,0]   

 cryst.   s( 4) = (    -1          0          0      )
                  (     1          1          0      )
                  (     0          0          1      )

 cart.    s( 4) = ( -1.0000000  0.0000000  0.0000000 )
                  (  0.0000000  1.0000000  0.0000000 )
                  (  0.0000000  0.0000000  1.0000000 )


      isym =  5     inv. 180 deg rotation - cryst. axis [0,1,0]  

 cryst.   s( 5) = (     1          1          0      )
                  (     0         -1          0      )
                  (     0          0          1      )

 cart.    s( 5) = (  0.5000000  0.8660254  0.0000000 )
                  (  0.8660254 -0.5000000  0.0000000 )
                  (  0.0000000  0.0000000  1.0000000 )


      isym =  6     inv. 180 deg rotation - cryst. axis [1,1,0]  

 cryst.   s( 6) = (     0         -1          0      )
                  (    -1          0          0      )
                  (     0          0          1      )

 cart.    s( 6) = (  0.5000000 -0.8660254  0.0000000 )
                  ( -0.8660254 -0.5000000  0.0000000 )
                  (  0.0000000  0.0000000  1.0000000 )


     point group C_3v (3m)  
     there are  3 classes
     the character table:

       E     2C3   3s_v 
A_1    1.00  1.00  1.00
A_2    1.00  1.00 -1.00
E      2.00 -1.00  0.00

     the symmetry operations in each class and the name of the first element:

     E        1
          identity                                               
     2C3      2    3
          120 deg rotation - cryst. axis [0,0,1]                 
     3s_v     4    5    6
          inv. 180 deg rotation - cart. axis [1,0,0]             

   Cartesian axes

     site n.     atom                  positions (alat units)
         1        Co     tau(   1) = (   0.0000000   0.0000000   0.0000000  )
         2        O      tau(   2) = (  -0.0000000   0.5773503   0.3310345  )
         3        O      tau(   3) = (   0.5000000   0.2886751   3.0827586  )
         4        K      tau(   4) = (   0.0000000   0.0000000   1.7586207  )

   Crystallographic axes

     site n.     atom                  positions (cryst. coord.)
         1        Co     tau(   1) = (  0.0000000  0.0000000  0.0000000  )
         2        O      tau(   2) = (  0.3333333  0.6666667  0.0969697  )
         3        O      tau(   3) = (  0.6666667  0.3333333  0.9030303  )
         4        K      tau(   4) = (  0.0000000  0.0000000  0.5151515  )

     number of k points=    25  Marzari-Vanderbilt smearing, width (Ry)=  0.0200
                       cart. coord. in units 2pi/alat
        k(    1) = (   0.0000000   0.0000000   0.0000000), wk =   0.0052083
        k(    2) = (   0.0000000   0.0000000   0.0976431), wk =   0.0104167
        k(    3) = (   0.0000000   0.1443376   0.0000000), wk =   0.0312500
        k(    4) = (   0.0000000   0.1443376   0.0976431), wk =   0.0312500
        k(    5) = (   0.0000000   0.2886751   0.0000000), wk =   0.0312500
        k(    6) = (   0.0000000   0.2886751   0.0976431), wk =   0.0312500
        k(    7) = (   0.0000000   0.4330127   0.0000000), wk =   0.0312500
        k(    8) = (   0.0000000   0.4330127   0.0976431), wk =   0.0312500
        k(    9) = (   0.0000000  -0.5773503   0.0000000), wk =   0.0156250
        k(   10) = (   0.0000000  -0.5773503   0.0976431), wk =   0.0312500
        k(   11) = (   0.1250000   0.2165064   0.0000000), wk =   0.0312500
        k(   12) = (   0.1250000   0.2165064   0.0976431), wk =   0.0625000
        k(   13) = (   0.1250000   0.3608439   0.0000000), wk =   0.0625000
        k(   14) = (   0.1250000   0.3608439   0.0976431), wk =   0.0625000
        k(   15) = (   0.1250000   0.5051815   0.0000000), wk =   0.0625000
        k(   16) = (   0.1250000   0.5051815   0.0976431), wk =   0.0625000
        k(   17) = (   0.2500000   0.4330127   0.0000000), wk =   0.0312500
        k(   18) = (   0.2500000   0.4330127   0.0976431), wk =   0.0625000
        k(   19) = (   0.2500000   0.5773503   0.0000000), wk =   0.0312500
        k(   20) = (   0.2500000   0.5773503   0.0976431), wk =   0.0625000
        k(   21) = (   0.0000000  -0.1443376   0.0976431), wk =   0.0312500
        k(   22) = (   0.0000000  -0.2886751   0.0976431), wk =   0.0312500
        k(   23) = (   0.0000000  -0.4330127   0.0976431), wk =   0.0312500
        k(   24) = (  -0.1250000  -0.3608439   0.0976431), wk =   0.0625000
        k(   25) = (  -0.1250000  -0.5051815   0.0976431), wk =   0.0625000

                       cryst. coord.
        k(    1) = (   0.0000000   0.0000000   0.0000000), wk =   0.0052083
        k(    2) = (   0.0000000   0.0000000   0.3333333), wk =   0.0104167
        k(    3) = (   0.0000000   0.1250000   0.0000000), wk =   0.0312500
        k(    4) = (   0.0000000   0.1250000   0.3333333), wk =   0.0312500
        k(    5) = (   0.0000000   0.2500000   0.0000000), wk =   0.0312500
        k(    6) = (   0.0000000   0.2500000   0.3333333), wk =   0.0312500
        k(    7) = (   0.0000000   0.3750000   0.0000000), wk =   0.0312500
        k(    8) = (   0.0000000   0.3750000   0.3333333), wk =   0.0312500
        k(    9) = (   0.0000000  -0.5000000   0.0000000), wk =   0.0156250
        k(   10) = (   0.0000000  -0.5000000   0.3333333), wk =   0.0312500
        k(   11) = (   0.1250000   0.1250000   0.0000000), wk =   0.0312500
        k(   12) = (   0.1250000   0.1250000   0.3333333), wk =   0.0625000
        k(   13) = (   0.1250000   0.2500000   0.0000000), wk =   0.0625000
        k(   14) = (   0.1250000   0.2500000   0.3333333), wk =   0.0625000
        k(   15) = (   0.1250000   0.3750000   0.0000000), wk =   0.0625000
        k(   16) = (   0.1250000   0.3750000   0.3333333), wk =   0.0625000
        k(   17) = (   0.2500000   0.2500000   0.0000000), wk =   0.0312500
        k(   18) = (   0.2500000   0.2500000   0.3333333), wk =   0.0625000
        k(   19) = (   0.2500000   0.3750000   0.0000000), wk =   0.0312500
        k(   20) = (   0.2500000   0.3750000   0.3333333), wk =   0.0625000
        k(   21) = (   0.0000000  -0.1250000   0.3333333), wk =   0.0312500
        k(   22) = (   0.0000000  -0.2500000   0.3333333), wk =   0.0312500
        k(   23) = (   0.0000000  -0.3750000   0.3333333), wk =   0.0312500
        k(   24) = (  -0.1250000  -0.2500000   0.3333333), wk =   0.0625000
        k(   25) = (  -0.1250000  -0.3750000   0.3333333), wk =   0.0625000

     Dense  grid:    86309 G-vectors     FFT dimensions: (  40,  40, 135)

     Smooth grid:    30591 G-vectors     FFT dimensions: (  27,  27,  96)

     Dynamical RAM for                 wfc:       1.57 MB

     Dynamical RAM for     wfc (w. buffer):      80.24 MB

     Dynamical RAM for           str. fact:       3.95 MB

     Dynamical RAM for           local pot:       0.00 MB

     Dynamical RAM for          nlocal pot:       3.03 MB

     Dynamical RAM for                qrad:       5.27 MB

     Dynamical RAM for          rho,v,vnew:      17.79 MB

     Dynamical RAM for               rhoin:       5.93 MB

     Dynamical RAM for            rho*nmix:      42.14 MB

     Dynamical RAM for           G-vectors:       5.17 MB

     Dynamical RAM for          h,s,v(r/c):       0.13 MB

     Dynamical RAM for          <psi|beta>:       0.02 MB

     Dynamical RAM for                 psi:       3.15 MB

     Dynamical RAM for                hpsi:       3.15 MB

     Dynamical RAM for                spsi:       3.15 MB

     Dynamical RAM for      wfcinit/wfcrot:       3.16 MB

     Dynamical RAM for           addusdens:     248.91 MB

     Dynamical RAM for          addusforce:     251.56 MB

     Estimated static dynamical RAM per process >     136.54 MB

     Estimated max dynamical RAM per process >     430.24 MB

     Check: negative core charge=   -0.000006
     Generating pointlists ...
     new r_m :   0.2745 (alat units)  1.5045 (a.u.) for type    1
     new r_m :   0.2745 (alat units)  1.5045 (a.u.) for type    2
     new r_m :   0.4125 (alat units)  2.2606 (a.u.) for type    3

     Initial potential from superposition of free atoms

     starting charge      37.9809, renormalised to      38.0000
     Starting wfcs are   26 randomized atomic wfcs +    1 random wfcs
     Checking if some PAW data can be deallocated... 

     total cpu time spent up to now is        3.9 secs

     Self-consistent Calculation
[tb_dev] Currently allocated     6.58E-01 Mbytes, locked:    0 /   6
[tb_pin] Currently allocated     0.00E+00 Mbytes, locked:    0 /   0

     iteration #  1     ecut=    60.00 Ry     beta= 0.30
     Davidson diagonalization with overlap

---- Real-time Memory Report at c_bands before calling an iterative solver
           713 MiB given to the printing process from OS
             0 MiB allocation reported by mallinfo(arena+hblkhd)
       1356588 MiB available memory on the node where the printing process lives
     GPU memory used/free/total (MiB): 1110 / 80040 / 81151
------------------
     ethr =  1.00E-02,  avg # of iterations =  8.1

     total cpu time spent up to now is        6.1 secs

     total energy              =    -572.68823115 Ry
     estimated scf accuracy    <       2.15086401 Ry

     total magnetization       =     4.02 Bohr mag/cell
     absolute magnetization    =     4.02 Bohr mag/cell
[tb_dev] Currently allocated     3.05E-05 Mbytes, locked:    0 /   2
[tb_pin] Currently allocated     0.00E+00 Mbytes, locked:    0 /   0

     iteration #  2     ecut=    60.00 Ry     beta= 0.30
     Davidson diagonalization with overlap

---- Real-time Memory Report at c_bands before calling an iterative solver
           756 MiB given to the printing process from OS
             0 MiB allocation reported by mallinfo(arena+hblkhd)
       1354760 MiB available memory on the node where the printing process lives
     GPU memory used/free/total (MiB): 1130 / 80020 / 81151
------------------
     ethr =  5.66E-03,  avg # of iterations =  1.9

     total cpu time spent up to now is        7.5 secs

     total energy              =    -572.66138644 Ry
     estimated scf accuracy    <       1.13146473 Ry

     total magnetization       =     3.84 Bohr mag/cell
     absolute magnetization    =     3.84 Bohr mag/cell
[tb_dev] Currently allocated     3.05E-05 Mbytes, locked:    0 /   2
[tb_pin] Currently allocated     0.00E+00 Mbytes, locked:    0 /   0

     iteration #  3     ecut=    60.00 Ry     beta= 0.30
     Davidson diagonalization with overlap

---- Real-time Memory Report at c_bands before calling an iterative solver
           759 MiB given to the printing process from OS
             0 MiB allocation reported by mallinfo(arena+hblkhd)
       1353614 MiB available memory on the node where the printing process lives
     GPU memory used/free/total (MiB): 1130 / 80020 / 81151
------------------
     ethr =  2.98E-03,  avg # of iterations =  2.3

     total cpu time spent up to now is        9.0 secs

     total energy              =    -572.83454772 Ry
     estimated scf accuracy    <       1.51083362 Ry

     total magnetization       =     1.40 Bohr mag/cell
     absolute magnetization    =     1.54 Bohr mag/cell
[tb_dev] Currently allocated     3.05E-05 Mbytes, locked:    0 /   2
[tb_pin] Currently allocated     0.00E+00 Mbytes, locked:    0 /   0

     iteration #  4     ecut=    60.00 Ry     beta= 0.30
     Davidson diagonalization with overlap

---- Real-time Memory Report at c_bands before calling an iterative solver
           760 MiB given to the printing process from OS
             0 MiB allocation reported by mallinfo(arena+hblkhd)
       1352471 MiB available memory on the node where the printing process lives
     GPU memory used/free/total (MiB): 1130 / 80020 / 81151
------------------
     ethr =  2.98E-03,  avg # of iterations =  1.2

     total cpu time spent up to now is       10.4 secs

     total energy              =    -572.89967037 Ry
     estimated scf accuracy    <       1.80347919 Ry

     total magnetization       =     1.26 Bohr mag/cell
     absolute magnetization    =     1.43 Bohr mag/cell
[tb_dev] Currently allocated     3.05E-05 Mbytes, locked:    0 /   2
[tb_pin] Currently allocated     0.00E+00 Mbytes, locked:    0 /   0

     iteration #  5     ecut=    60.00 Ry     beta= 0.30
     Davidson diagonalization with overlap

---- Real-time Memory Report at c_bands before calling an iterative solver
           761 MiB given to the printing process from OS
             0 MiB allocation reported by mallinfo(arena+hblkhd)
       1351414 MiB available memory on the node where the printing process lives
     GPU memory used/free/total (MiB): 1130 / 80020 / 81151
------------------
     ethr =  2.98E-03,  avg # of iterations =  2.0

     total cpu time spent up to now is       11.8 secs

     total energy              =    -572.67095719 Ry
     estimated scf accuracy    <       1.67855345 Ry

     total magnetization       =     0.43 Bohr mag/cell
     absolute magnetization    =     0.78 Bohr mag/cell
[tb_dev] Currently allocated     3.05E-05 Mbytes, locked:    0 /   2
[tb_pin] Currently allocated     0.00E+00 Mbytes, locked:    0 /   0

     iteration #  6     ecut=    60.00 Ry     beta= 0.30
     Davidson diagonalization with overlap

---- Real-time Memory Report at c_bands before calling an iterative solver
           765 MiB given to the printing process from OS
             0 MiB allocation reported by mallinfo(arena+hblkhd)
       1349663 MiB available memory on the node where the printing process lives
     GPU memory used/free/total (MiB): 1130 / 80020 / 81151
------------------
     ethr =  2.98E-03,  avg # of iterations =  1.1

     total cpu time spent up to now is       13.1 secs

     total energy              =    -572.83016285 Ry
     estimated scf accuracy    <       0.37710189 Ry

     total magnetization       =     1.01 Bohr mag/cell
     absolute magnetization    =     1.20 Bohr mag/cell
[tb_dev] Currently allocated     3.05E-05 Mbytes, locked:    0 /   2
[tb_pin] Currently allocated     0.00E+00 Mbytes, locked:    0 /   0

     iteration #  7     ecut=    60.00 Ry     beta= 0.30
     Davidson diagonalization with overlap

---- Real-time Memory Report at c_bands before calling an iterative solver
           766 MiB given to the printing process from OS
             0 MiB allocation reported by mallinfo(arena+hblkhd)
       1347593 MiB available memory on the node where the printing process lives
     GPU memory used/free/total (MiB): 1130 / 80020 / 81151
------------------
     ethr =  9.92E-04,  avg # of iterations =  2.2

     total cpu time spent up to now is       14.7 secs

     total energy              =    -572.84721912 Ry
     estimated scf accuracy    <       0.11907882 Ry

     total magnetization       =     0.82 Bohr mag/cell
     absolute magnetization    =     1.07 Bohr mag/cell
[tb_dev] Currently allocated     3.05E-05 Mbytes, locked:    0 /   2
[tb_pin] Currently allocated     0.00E+00 Mbytes, locked:    0 /   0

     iteration #  8     ecut=    60.00 Ry     beta= 0.30
     Davidson diagonalization with overlap

---- Real-time Memory Report at c_bands before calling an iterative solver
           770 MiB given to the printing process from OS
             0 MiB allocation reported by mallinfo(arena+hblkhd)
       1344893 MiB available memory on the node where the printing process lives
     GPU memory used/free/total (MiB): 1130 / 80020 / 81151
------------------
     ethr =  3.13E-04,  avg # of iterations =  4.6

     total cpu time spent up to now is       16.4 secs

     total energy              =    -572.83261099 Ry
     estimated scf accuracy    <       0.25016504 Ry

     total magnetization       =     0.92 Bohr mag/cell
     absolute magnetization    =     1.10 Bohr mag/cell
[tb_dev] Currently allocated     3.05E-05 Mbytes, locked:    0 /   2
[tb_pin] Currently allocated     0.00E+00 Mbytes, locked:    0 /   0

     iteration #  9     ecut=    60.00 Ry     beta= 0.30
     Davidson diagonalization with overlap

---- Real-time Memory Report at c_bands before calling an iterative solver
           773 MiB given to the printing process from OS
             0 MiB allocation reported by mallinfo(arena+hblkhd)
       1341860 MiB available memory on the node where the printing process lives
     GPU memory used/free/total (MiB): 1130 / 80020 / 81151
------------------
     ethr =  3.13E-04,  avg # of iterations =  1.2

     total cpu time spent up to now is       17.8 secs

     total energy              =    -572.83494447 Ry
     estimated scf accuracy    <       0.02863261 Ry

     total magnetization       =     0.65 Bohr mag/cell
     absolute magnetization    =     0.76 Bohr mag/cell
[tb_dev] Currently allocated     3.05E-05 Mbytes, locked:    0 /   2
[tb_pin] Currently allocated     0.00E+00 Mbytes, locked:    0 /   0

     iteration # 10     ecut=    60.00 Ry     beta= 0.30
     Davidson diagonalization with overlap

---- Real-time Memory Report at c_bands before calling an iterative solver
           775 MiB given to the printing process from OS
             0 MiB allocation reported by mallinfo(arena+hblkhd)
       1359728 MiB available memory on the node where the printing process lives
     GPU memory used/free/total (MiB): 1130 / 80020 / 81151
------------------
     c_bands:  2 eigenvalues not converged
     c_bands:  1 eigenvalues not converged
     c_bands:  1 eigenvalues not converged
     c_bands:  1 eigenvalues not converged
     c_bands:  1 eigenvalues not converged
     c_bands:  1 eigenvalues not converged
     c_bands:  1 eigenvalues not converged
     ethr =  7.53E-05,  avg # of iterations =  8.8

     total cpu time spent up to now is       20.1 secs

     total energy              =    -572.84292503 Ry
     estimated scf accuracy    <       0.13317203 Ry

     total magnetization       =     0.69 Bohr mag/cell
     absolute magnetization    =     0.76 Bohr mag/cell
[tb_dev] Currently allocated     3.05E-05 Mbytes, locked:    0 /   2
[tb_pin] Currently allocated     0.00E+00 Mbytes, locked:    0 /   0

     iteration # 11     ecut=    60.00 Ry     beta= 0.30
     Davidson diagonalization with overlap

---- Real-time Memory Report at c_bands before calling an iterative solver
           775 MiB given to the printing process from OS
             0 MiB allocation reported by mallinfo(arena+hblkhd)
       1358102 MiB available memory on the node where the printing process lives
     GPU memory used/free/total (MiB): 1130 / 80020 / 81151
------------------
     ethr =  7.53E-05,  avg # of iterations =  1.9

     total cpu time spent up to now is       21.5 secs

     total energy              =    -572.84727566 Ry
     estimated scf accuracy    <       0.01152712 Ry

     total magnetization       =     0.63 Bohr mag/cell
     absolute magnetization    =     0.70 Bohr mag/cell
[tb_dev] Currently allocated     3.05E-05 Mbytes, locked:    0 /   2
[tb_pin] Currently allocated     0.00E+00 Mbytes, locked:    0 /   0

     iteration # 12     ecut=    60.00 Ry     beta= 0.30
     Davidson diagonalization with overlap

---- Real-time Memory Report at c_bands before calling an iterative solver
           775 MiB given to the printing process from OS
             0 MiB allocation reported by mallinfo(arena+hblkhd)
       1356834 MiB available memory on the node where the printing process lives
     GPU memory used/free/total (MiB): 1130 / 80020 / 81151
------------------
     ethr =  3.03E-05,  avg # of iterations =  1.8

     total cpu time spent up to now is       22.9 secs

     total energy              =    -572.84766981 Ry
     estimated scf accuracy    <       0.01120805 Ry

     total magnetization       =     0.70 Bohr mag/cell
     absolute magnetization    =     0.78 Bohr mag/cell
[tb_dev] Currently allocated     3.05E-05 Mbytes, locked:    0 /   2
[tb_pin] Currently allocated     0.00E+00 Mbytes, locked:    0 /   0

     iteration # 13     ecut=    60.00 Ry     beta= 0.30
     Davidson diagonalization with overlap

---- Real-time Memory Report at c_bands before calling an iterative solver
           775 MiB given to the printing process from OS
             0 MiB allocation reported by mallinfo(arena+hblkhd)
       1355431 MiB available memory on the node where the printing process lives
     GPU memory used/free/total (MiB): 1130 / 80020 / 81151
------------------
     ethr =  2.95E-05,  avg # of iterations =  1.1

     total cpu time spent up to now is       24.2 secs

     total energy              =    -572.84816725 Ry
     estimated scf accuracy    <       0.00082190 Ry

     total magnetization       =     0.64 Bohr mag/cell
     absolute magnetization    =     0.74 Bohr mag/cell
[tb_dev] Currently allocated     3.05E-05 Mbytes, locked:    0 /   2
[tb_pin] Currently allocated     0.00E+00 Mbytes, locked:    0 /   0

     iteration # 14     ecut=    60.00 Ry     beta= 0.30
     Davidson diagonalization with overlap

---- Real-time Memory Report at c_bands before calling an iterative solver
           775 MiB given to the printing process from OS
             0 MiB allocation reported by mallinfo(arena+hblkhd)
       1354401 MiB available memory on the node where the printing process lives
     GPU memory used/free/total (MiB): 1130 / 80020 / 81151
------------------
     c_bands:  1 eigenvalues not converged
     c_bands:  1 eigenvalues not converged
     c_bands:  1 eigenvalues not converged
     c_bands:  1 eigenvalues not converged
     c_bands:  1 eigenvalues not converged
     c_bands:  1 eigenvalues not converged
     c_bands:  1 eigenvalues not converged
     c_bands:  1 eigenvalues not converged
     c_bands:  1 eigenvalues not converged
     c_bands:  1 eigenvalues not converged
     ethr =  2.16E-06,  avg # of iterations = 11.8

     total cpu time spent up to now is       26.9 secs

     total energy              =    -572.84828235 Ry
     estimated scf accuracy    <       0.00457023 Ry

     total magnetization       =     0.59 Bohr mag/cell
     absolute magnetization    =     0.71 Bohr mag/cell
[tb_dev] Currently allocated     3.05E-05 Mbytes, locked:    0 /   2
[tb_pin] Currently allocated     0.00E+00 Mbytes, locked:    0 /   0

     iteration # 15     ecut=    60.00 Ry     beta= 0.30
     Davidson diagonalization with overlap

---- Real-time Memory Report at c_bands before calling an iterative solver
           775 MiB given to the printing process from OS
             0 MiB allocation reported by mallinfo(arena+hblkhd)
       1352208 MiB available memory on the node where the printing process lives
     GPU memory used/free/total (MiB): 1130 / 80020 / 81151
------------------
     c_bands:  1 eigenvalues not converged
     c_bands:  1 eigenvalues not converged
     c_bands:  1 eigenvalues not converged
     ethr =  2.16E-06,  avg # of iterations =  3.4

     total cpu time spent up to now is       28.5 secs

     total energy              =    -572.84837009 Ry
     estimated scf accuracy    <       0.00039760 Ry

     total magnetization       =     0.64 Bohr mag/cell
     absolute magnetization    =     0.75 Bohr mag/cell
[tb_dev] Currently allocated     3.05E-05 Mbytes, locked:    0 /   2
[tb_pin] Currently allocated     0.00E+00 Mbytes, locked:    0 /   0

     iteration # 16     ecut=    60.00 Ry     beta= 0.30
     Davidson diagonalization with overlap

---- Real-time Memory Report at c_bands before calling an iterative solver
           775 MiB given to the printing process from OS
             0 MiB allocation reported by mallinfo(arena+hblkhd)
       1350191 MiB available memory on the node where the printing process lives
     GPU memory used/free/total (MiB): 1130 / 80020 / 81151
------------------
     ethr =  1.05E-06,  avg # of iterations =  1.3

     total cpu time spent up to now is       29.9 secs

     total energy              =    -572.84839889 Ry
     estimated scf accuracy    <       0.00031864 Ry

     total magnetization       =     0.64 Bohr mag/cell
     absolute magnetization    =     0.75 Bohr mag/cell
[tb_dev] Currently allocated     3.05E-05 Mbytes, locked:    0 /   2
[tb_pin] Currently allocated     0.00E+00 Mbytes, locked:    0 /   0

     iteration # 17     ecut=    60.00 Ry     beta= 0.30
     Davidson diagonalization with overlap

---- Real-time Memory Report at c_bands before calling an iterative solver
           775 MiB given to the printing process from OS
             0 MiB allocation reported by mallinfo(arena+hblkhd)
       1349219 MiB available memory on the node where the printing process lives
     GPU memory used/free/total (MiB): 1130 / 80020 / 81151
------------------
     ethr =  8.39E-07,  avg # of iterations =  2.5

     total cpu time spent up to now is       31.4 secs

     total energy              =    -572.84846328 Ry
     estimated scf accuracy    <       0.00012765 Ry

     total magnetization       =     0.62 Bohr mag/cell
     absolute magnetization    =     0.78 Bohr mag/cell
[tb_dev] Currently allocated     3.05E-05 Mbytes, locked:    0 /   2
[tb_pin] Currently allocated     0.00E+00 Mbytes, locked:    0 /   0

     iteration # 18     ecut=    60.00 Ry     beta= 0.30
     Davidson diagonalization with overlap

---- Real-time Memory Report at c_bands before calling an iterative solver
           776 MiB given to the printing process from OS
             0 MiB allocation reported by mallinfo(arena+hblkhd)
       1346703 MiB available memory on the node where the printing process lives
     GPU memory used/free/total (MiB): 1130 / 80020 / 81151
------------------
     ethr =  3.36E-07,  avg # of iterations =  3.9

     total cpu time spent up to now is       33.1 secs

     total energy              =    -572.84845610 Ry
     estimated scf accuracy    <       0.00029268 Ry

     total magnetization       =     0.61 Bohr mag/cell
     absolute magnetization    =     0.79 Bohr mag/cell
[tb_dev] Currently allocated     3.05E-05 Mbytes, locked:    0 /   2
[tb_pin] Currently allocated     0.00E+00 Mbytes, locked:    0 /   0

     iteration # 19     ecut=    60.00 Ry     beta= 0.30
     Davidson diagonalization with overlap

---- Real-time Memory Report at c_bands before calling an iterative solver
           776 MiB given to the printing process from OS
             0 MiB allocation reported by mallinfo(arena+hblkhd)
       1343488 MiB available memory on the node where the printing process lives
     GPU memory used/free/total (MiB): 1130 / 80020 / 81151
------------------
     ethr =  3.36E-07,  avg # of iterations =  2.0

     total cpu time spent up to now is       34.5 secs

     total energy              =    -572.84844488 Ry
     estimated scf accuracy    <       0.00016135 Ry

     total magnetization       =     0.61 Bohr mag/cell
     absolute magnetization    =     0.80 Bohr mag/cell
[tb_dev] Currently allocated     3.05E-05 Mbytes, locked:    0 /   2
[tb_pin] Currently allocated     0.00E+00 Mbytes, locked:    0 /   0

     iteration # 20     ecut=    60.00 Ry     beta= 0.30
     Davidson diagonalization with overlap

---- Real-time Memory Report at c_bands before calling an iterative solver
           776 MiB given to the printing process from OS
             0 MiB allocation reported by mallinfo(arena+hblkhd)
       1340417 MiB available memory on the node where the printing process lives
     GPU memory used/free/total (MiB): 1130 / 80020 / 81151
------------------
     ethr =  3.36E-07,  avg # of iterations =  2.0

     total cpu time spent up to now is       36.0 secs

     total energy              =    -572.84846630 Ry
     estimated scf accuracy    <       0.00001476 Ry

     total magnetization       =     0.60 Bohr mag/cell
     absolute magnetization    =     0.80 Bohr mag/cell
[tb_dev] Currently allocated     3.05E-05 Mbytes, locked:    0 /   2
[tb_pin] Currently allocated     0.00E+00 Mbytes, locked:    0 /   0

     iteration # 21     ecut=    60.00 Ry     beta= 0.30
     Davidson diagonalization with overlap

---- Real-time Memory Report at c_bands before calling an iterative solver
           776 MiB given to the printing process from OS
             0 MiB allocation reported by mallinfo(arena+hblkhd)
       1358930 MiB available memory on the node where the printing process lives
     GPU memory used/free/total (MiB): 1130 / 80020 / 81151
------------------
     ethr =  3.88E-08,  avg # of iterations =  5.1

     total cpu time spent up to now is       37.9 secs

     total energy              =    -572.84848110 Ry
     estimated scf accuracy    <       0.00001037 Ry

     total magnetization       =     0.59 Bohr mag/cell
     absolute magnetization    =     0.80 Bohr mag/cell
[tb_dev] Currently allocated     3.05E-05 Mbytes, locked:    0 /   2
[tb_pin] Currently allocated     0.00E+00 Mbytes, locked:    0 /   0

     iteration # 22     ecut=    60.00 Ry     beta= 0.30
     Davidson diagonalization with overlap

---- Real-time Memory Report at c_bands before calling an iterative solver
           776 MiB given to the printing process from OS
             0 MiB allocation reported by mallinfo(arena+hblkhd)
       1357555 MiB available memory on the node where the printing process lives
     GPU memory used/free/total (MiB): 1130 / 80020 / 81151
------------------
     ethr =  2.73E-08,  avg # of iterations =  2.0

     total cpu time spent up to now is       39.3 secs

     total energy              =    -572.84848894 Ry
     estimated scf accuracy    <       0.00000698 Ry

     total magnetization       =     0.59 Bohr mag/cell
     absolute magnetization    =     0.81 Bohr mag/cell
[tb_dev] Currently allocated     3.05E-05 Mbytes, locked:    0 /   2
[tb_pin] Currently allocated     0.00E+00 Mbytes, locked:    0 /   0

     iteration # 23     ecut=    60.00 Ry     beta= 0.30
     Davidson diagonalization with overlap

---- Real-time Memory Report at c_bands before calling an iterative solver
           776 MiB given to the printing process from OS
             0 MiB allocation reported by mallinfo(arena+hblkhd)
       1356395 MiB available memory on the node where the printing process lives
     GPU memory used/free/total (MiB): 1130 / 80020 / 81151
------------------
     ethr =  1.84E-08,  avg # of iterations =  2.0

     total cpu time spent up to now is       40.8 secs

     total energy              =    -572.84849694 Ry
     estimated scf accuracy    <       0.00000145 Ry

     total magnetization       =     0.58 Bohr mag/cell
     absolute magnetization    =     0.82 Bohr mag/cell
[tb_dev] Currently allocated     3.05E-05 Mbytes, locked:    0 /   2
[tb_pin] Currently allocated     0.00E+00 Mbytes, locked:    0 /   0

     iteration # 24     ecut=    60.00 Ry     beta= 0.30
     Davidson diagonalization with overlap

---- Real-time Memory Report at c_bands before calling an iterative solver
           776 MiB given to the printing process from OS
             0 MiB allocation reported by mallinfo(arena+hblkhd)
       1356208 MiB available memory on the node where the printing process lives
     GPU memory used/free/total (MiB): 1130 / 80020 / 81151
------------------
     ethr =  3.82E-09,  avg # of iterations =  5.6

     total cpu time spent up to now is       42.7 secs

     total energy              =    -572.84850312 Ry
     estimated scf accuracy    <       0.00000080 Ry

     total magnetization       =     0.57 Bohr mag/cell
     absolute magnetization    =     0.83 Bohr mag/cell
[tb_dev] Currently allocated     3.05E-05 Mbytes, locked:    0 /   2
[tb_pin] Currently allocated     0.00E+00 Mbytes, locked:    0 /   0

     iteration # 25     ecut=    60.00 Ry     beta= 0.30
     Davidson diagonalization with overlap

---- Real-time Memory Report at c_bands before calling an iterative solver
           776 MiB given to the printing process from OS
             0 MiB allocation reported by mallinfo(arena+hblkhd)
       1354397 MiB available memory on the node where the printing process lives
     GPU memory used/free/total (MiB): 1130 / 80020 / 81151
------------------
     ethr =  2.11E-09,  avg # of iterations =  3.8

     total cpu time spent up to now is       44.4 secs

     total energy              =    -572.84850940 Ry
     estimated scf accuracy    <       0.00000048 Ry

     total magnetization       =     0.56 Bohr mag/cell
     absolute magnetization    =     0.84 Bohr mag/cell
[tb_dev] Currently allocated     3.05E-05 Mbytes, locked:    0 /   2
[tb_pin] Currently allocated     0.00E+00 Mbytes, locked:    0 /   0

     iteration # 26     ecut=    60.00 Ry     beta= 0.30
     Davidson diagonalization with overlap

---- Real-time Memory Report at c_bands before calling an iterative solver
           776 MiB given to the printing process from OS
             0 MiB allocation reported by mallinfo(arena+hblkhd)
       1352766 MiB available memory on the node where the printing process lives
     GPU memory used/free/total (MiB): 1130 / 80020 / 81151
------------------
     ethr =  1.25E-09,  avg # of iterations =  5.2

     total cpu time spent up to now is       46.3 secs

     total energy              =    -572.84851636 Ry
     estimated scf accuracy    <       0.00000033 Ry

     total magnetization       =     0.55 Bohr mag/cell
     absolute magnetization    =     0.85 Bohr mag/cell
[tb_dev] Currently allocated     3.05E-05 Mbytes, locked:    0 /   2
[tb_pin] Currently allocated     0.00E+00 Mbytes, locked:    0 /   0

     iteration # 27     ecut=    60.00 Ry     beta= 0.30
     Davidson diagonalization with overlap

---- Real-time Memory Report at c_bands before calling an iterative solver
           776 MiB given to the printing process from OS
             0 MiB allocation reported by mallinfo(arena+hblkhd)
       1351907 MiB available memory on the node where the printing process lives
     GPU memory used/free/total (MiB): 1130 / 80020 / 81151
------------------
     ethr =  8.68E-10,  avg # of iterations =  5.4

     total cpu time spent up to now is       48.2 secs

     total energy              =    -572.84852206 Ry
     estimated scf accuracy    <       0.00000028 Ry

     total magnetization       =     0.54 Bohr mag/cell
     absolute magnetization    =     0.86 Bohr mag/cell
[tb_dev] Currently allocated     3.05E-05 Mbytes, locked:    0 /   2
[tb_pin] Currently allocated     0.00E+00 Mbytes, locked:    0 /   0

     iteration # 28     ecut=    60.00 Ry     beta= 0.30
     Davidson diagonalization with overlap

---- Real-time Memory Report at c_bands before calling an iterative solver
           776 MiB given to the printing process from OS
             0 MiB allocation reported by mallinfo(arena+hblkhd)
       1350925 MiB available memory on the node where the printing process lives
     GPU memory used/free/total (MiB): 1130 / 80020 / 81151
------------------
     ethr =  7.35E-10,  avg # of iterations =  5.2

     total cpu time spent up to now is       50.1 secs

     total energy              =    -572.84852518 Ry
     estimated scf accuracy    <       0.00000015 Ry

     total magnetization       =     0.53 Bohr mag/cell
     absolute magnetization    =     0.87 Bohr mag/cell
[tb_dev] Currently allocated     3.05E-05 Mbytes, locked:    0 /   2
[tb_pin] Currently allocated     0.00E+00 Mbytes, locked:    0 /   0

     iteration # 29     ecut=    60.00 Ry     beta= 0.30
     Davidson diagonalization with overlap

---- Real-time Memory Report at c_bands before calling an iterative solver
           776 MiB given to the printing process from OS
             0 MiB allocation reported by mallinfo(arena+hblkhd)
       1347518 MiB available memory on the node where the printing process lives
     GPU memory used/free/total (MiB): 1130 / 80020 / 81151
------------------
     ethr =  3.86E-10,  avg # of iterations =  5.5
 
     Magnetic moment per site  (integrated on atomic sphere of radius R)
     atom   1 (R=0.275)  charge= 14.1111  magn=  0.5470
     atom   2 (R=0.275)  charge=  5.2253  magn=  0.0504
     atom   3 (R=0.275)  charge=  5.2301  magn=  0.0459
     atom   4 (R=0.413)  charge=  7.8324  magn= -0.0774

     total cpu time spent up to now is       52.0 secs

     End of self-consistent calculation

 ------ SPIN UP ------------


          k = 0.0000 0.0000 0.0000 (  3827 PWs)   bands (ev):

   -89.3299 -52.5487 -52.5383 -52.5383 -27.8723 -12.8268 -11.1641 -10.9482
    -9.7995  -9.7995   0.8853   1.3652   1.3652   4.2329   4.7961   4.8748
     4.8748   4.9942   4.9942   6.1260   7.9432   8.4544   8.7051   8.7051
    10.6021  10.6021  13.4098

     occupation numbers 
     1.0000   1.0000   1.0000   1.0000   1.0000   1.0000   1.0000   1.0000
     1.0000   1.0000   1.0000   1.0000   1.0000   1.0000   1.0000   1.0000
     1.0000   1.0000   1.0000   1.0794   0.0000   0.0000   0.0000   0.0000
     0.0000   0.0000   0.0000

          k = 0.0000 0.0000 0.0976 (  3838 PWs)   bands (ev):

   -89.3299 -52.5488 -52.5383 -52.5383 -27.8723 -12.8269 -11.1615 -10.9509
    -9.7995  -9.7995   0.8958   1.3652   1.3652   4.0253   4.8748   4.8748
     4.9942   4.9942   5.0904   6.0701   7.9783   8.3303   8.7051   8.7051
    10.6020  10.6020  13.6701

     occupation numbers 
     1.0000   1.0000   1.0000   1.0000   1.0000   1.0000   1.0000   1.0000
     1.0000   1.0000   1.0000   1.0000   1.0000   1.0000   1.0000   1.0000
     1.0000   1.0000   1.0000   1.0817   0.0000   0.0000   0.0000   0.0000
     0.0000   0.0000   0.0000

          k = 0.0000 0.1443 0.0000 (  3809 PWs)   bands (ev):

   -89.3292 -52.5476 -52.5459 -52.5401 -27.7857 -12.6587 -11.0861 -10.9522
   -10.2469  -9.8906   1.0808   1.1957   1.4773   3.8154   4.2159   4.5813
     5.2920   5.3515   5.5473   6.2387   8.0457   8.3473   8.6042   8.6083
     9.9612  11.1623  13.2007

     occupation numbers 
     1.0000   1.0000   1.0000   1.0000   1.0000   1.0000   1.0000   1.0000
     1.0000   1.0000   1.0000   1.0000   1.0000   1.0000   1.0000   1.0000
     1.0000   1.0000   1.0002   0.9837   0.0000   0.0000   0.0000   0.0000
     0.0000   0.0000   0.0000

          k = 0.0000 0.1443 0.0976 (  3828 PWs)   bands (ev):

   -89.3292 -52.5477 -52.5460 -52.5401 -27.7857 -12.6588 -11.0826 -10.9557
   -10.2469  -9.8906   1.0878   1.1949   1.4773   3.8179   4.2159   4.4483
     5.2690   5.5474   5.6236   6.1396   8.1234   8.2082   8.6084   8.6249
     9.9618  11.1623  12.9921

     occupation numbers 
     1.0000   1.0000   1.0000   1.0000   1.0000   1.0000   1.0000   1.0000
     1.0000   1.0000   1.0000   1.0000   1.0000   1.0000   1.0000   1.0000
     1.0000   1.0002   1.0008   1.0752   0.0000   0.0000   0.0000   0.0000
     0.0000   0.0000   0.0000

          k = 0.0000 0.2887 0.0000 (  3822 PWs)   bands (ev):

   -89.3275 -52.5647 -52.5450 -52.5446 -27.5682 -12.2172 -11.2369 -10.9876
   -10.8798 -10.1026   0.9424   1.5358   1.7456   2.5203   3.6595   4.8467
     5.4219   5.7527   5.9457   6.6275   7.4608   8.1412   8.4922   8.6284
    10.1961  12.7015  12.7078

     occupation numbers 
     1.0000   1.0000   1.0000   1.0000   1.0000   1.0000   1.0000   1.0000
     1.0000   1.0000   1.0000   1.0000   1.0000   1.0000   1.0000   1.0000
     1.0000   1.0058   1.0451   0.1202   0.0000   0.0000   0.0000   0.0000
     0.0000   0.0000   0.0000

          k = 0.0000 0.2887 0.0976 (  3809 PWs)   bands (ev):

   -89.3275 -52.5646 -52.5449 -52.5446 -27.5682 -12.2173 -11.2370 -10.9852
   -10.8820 -10.1026   0.9408   1.5387   1.7456   2.5227   3.6595   4.8343
     5.4081   5.7528   5.9911   6.5562   7.6404   7.9429   8.4923   8.7091
    10.2112  12.5769  12.7012

     occupation numbers 
     1.0000   1.0000   1.0000   1.0000   1.0000   1.0000   1.0000   1.0000
     1.0000   1.0000   1.0000   1.0000   1.0000   1.0000   1.0000   1.0000
     1.0000   1.0058   1.0607   0.2284   0.0000   0.0000   0.0000   0.0000
     0.0000   0.0000   0.0000

          k = 0.0000 0.4330 0.0000 (  3818 PWs)   bands (ev):

   -89.3259 -52.5833 -52.5492 -52.5422 -27.3371 -12.1384 -11.6835 -11.0649
   -10.6755 -10.3041   0.4915   1.5487   1.9609   2.5618   3.4764   4.3749
     5.2880   5.5063   5.7696   6.5517   7.3218   7.8755   8.5307   9.5299
    11.6658  12.8266  13.0313

     occupation numbers 
     1.0000   1.0000   1.0000   1.0000   1.0000   1.0000   1.0000   1.0000
     1.0000   1.0000   1.0000   1.0000   1.0000   1.0000   1.0000   1.0000
     1.0000   1.0001   1.0073   0.2368   0.0000   0.0000   0.0000   0.0000
     0.0000   0.0000   0.0000

          k = 0.0000 0.4330 0.0976 (  3823 PWs)   bands (ev):

   -89.3259 -52.5834 -52.5492 -52.5422 -27.3371 -12.1384 -11.6836 -11.0646
   -10.6757 -10.3041   0.4916   1.5477   1.9609   2.5637   3.4763   4.3714
     5.2897   5.5063   5.7682   6.5443   7.4340   7.7375   8.5307   9.5836
    11.6619  12.8263  12.9929

     occupation numbers 
     1.0000   1.0000   1.0000   1.0000   1.0000   1.0000   1.0000   1.0000
     1.0000   1.0000   1.0000   1.0000   1.0000   1.0000   1.0000   1.0000
     1.0000   1.0001   1.0071   0.2512   0.0000   0.0000   0.0000   0.0000
     0.0000   0.0000   0.0000

          k = 0.0000-0.5774 0.0000 (  3830 PWs)   bands (ev):

   -89.3252 -52.5911 -52.5510 -52.5411 -27.2369 -12.4935 -11.3138 -11.2321
   -10.5868 -10.3849   0.1148   1.7364   2.0074   2.7251   3.5342   4.1237
     5.0378   5.2868   5.6999   6.3000   7.1529   8.0076   8.5789  10.9668
    11.4705  12.6622  13.4818

     occupation numbers 
     1.0000   1.0000   1.0000   1.0000   1.0000   1.0000   1.0000   1.0000
     1.0000   1.0000   1.0000   1.0000   1.0000   1.0000   1.0000   1.0000
     1.0000   1.0000   1.0027   0.8682   0.0000   0.0000   0.0000   0.0000
     0.0000   0.0000   0.0000

          k = 0.0000-0.5774 0.0976 (  3834 PWs)   bands (ev):

   -89.3252 -52.5911 -52.5511 -52.5411 -27.2369 -12.4935 -11.3138 -11.2321
   -10.5868 -10.3849   0.1151   1.7355   2.0074   2.7269   3.5342   4.1171
     5.0390   5.2868   5.7026   6.3010   7.1795   7.9809   8.5789  10.9392
    11.4696  12.6619  13.5646

     occupation numbers 
     1.0000   1.0000   1.0000   1.0000   1.0000   1.0000   1.0000   1.0000
     1.0000   1.0000   1.0000   1.0000   1.0000   1.0000   1.0000   1.0000
     1.0000   1.0000   1.0028   0.8660   0.0000   0.0000   0.0000   0.0000
     0.0000   0.0000   0.0000

          k = 0.1250 0.2165 0.0000 (  3807 PWs)   bands (ev):

   -89.3280 -52.5584 -52.5458 -52.5440 -27.6333 -12.3538 -10.9832 -10.9317
   -10.9063 -10.1020   1.0352   1.4193   1.6326   2.9767   3.5235   4.9234
     5.3401   5.8414   5.9286   6.5687   7.6665   8.3207   8.3529   9.1032
     9.1331  12.3942  12.8930

     occupation numbers 
     1.0000   1.0000   1.0000   1.0000   1.0000   1.0000   1.0000   1.0000
     1.0000   1.0000   1.0000   1.0000   1.0000   1.0000   1.0000   1.0000
     1.0000   1.0173   1.0395   0.2060   0.0000   0.0000   0.0000   0.0000
     0.0000   0.0000   0.0000

          k = 0.1250 0.2165 0.0976 (  3820 PWs)   bands (ev):

   -89.3280 -52.5584 -52.5458 -52.5441 -27.6333 -12.3539 -10.9770 -10.9382
   -10.9059 -10.1020   1.0334   1.4234   1.6327   2.9792   3.5234   4.8846
     5.3403   5.8165   6.0104   6.5451   7.7819   8.0812   8.4452   9.1032
     9.1789  12.3940  12.7648

     occupation numbers 
     1.0000   1.0000   1.0000   1.0000   1.0000   1.0000   1.0000   1.0000
     1.0000   1.0000   1.0000   1.0000   1.0000   1.0000   1.0000   1.0000
     1.0000   1.0130   1.0671   0.2496   0.0000   0.0000   0.0000   0.0000
     0.0000   0.0000   0.0000

          k = 0.1250 0.3608 0.0000 (  3816 PWs)   bands (ev):

   -89.3264 -52.5751 -52.5506 -52.5430 -27.4069 -11.8676 -11.7401 -11.0190
   -10.7376 -10.4287   0.9007   1.3954   1.9718   2.4655   3.1020   4.6678
     5.3780   5.6578   5.9874   7.3328   7.5297   7.9873   8.2285   8.8543
    10.4647  12.0940  13.2582

     occupation numbers 
     1.0000   1.0000   1.0000   1.0000   1.0000   1.0000   1.0000   1.0000
     1.0000   1.0000   1.0000   1.0000   1.0000   1.0000   1.0000   1.0000
     1.0000   1.0014   1.0594   0.0000   0.0000   0.0000   0.0000   0.0000
     0.0000   0.0000   0.0000

          k = 0.1250 0.3608 0.0976 (  3805 PWs)   bands (ev):

   -89.3263 -52.5751 -52.5505 -52.5430 -27.4069 -11.8676 -11.7403 -11.0186
   -10.7379 -10.4287   0.9002   1.3952   1.9720   2.4675   3.1021   4.6670
     5.3781   5.6589   5.9862   7.2847   7.6805   7.8058   8.2887   8.8788
    10.4749  12.0895  13.2105

     occupation numbers 
     1.0000   1.0000   1.0000   1.0000   1.0000   1.0000   1.0000   1.0000
     1.0000   1.0000   1.0000   1.0000   1.0000   1.0000   1.0000   1.0000
     1.0000   1.0014   1.0590   0.0000   0.0000   0.0000   0.0000   0.0000
     0.0000   0.0000   0.0000

          k = 0.1250 0.5052 0.0000 (  3825 PWs)   bands (ev):

   -89.3252 -52.5869 -52.5552 -52.5411 -27.2381 -12.2994 -11.4156 -11.1306
   -10.6510 -10.5880   0.4001   1.4066   2.2486   2.7172   3.0643   4.0911
     5.1300   5.4241   5.8977   7.0336   7.4153   7.9777   8.3222  10.3899
    11.3921  11.4531  14.1752

     occupation numbers 
     1.0000   1.0000   1.0000   1.0000   1.0000   1.0000   1.0000   1.0000
     1.0000   1.0000   1.0000   1.0000   1.0000   1.0000   1.0000   1.0000
     1.0000   1.0000   1.0304   0.0003   0.0000   0.0000   0.0000   0.0000
     0.0000   0.0000   0.0000

          k = 0.1250 0.5052 0.0976 (  3819 PWs)   bands (ev):

   -89.3252 -52.5869 -52.5552 -52.5411 -27.2381 -12.2994 -11.4157 -11.1305
   -10.6510 -10.5881   0.4004   1.4063   2.2481   2.7187   3.0643   4.0875
     5.1305   5.4234   5.8998   7.0340   7.4441   7.9317   8.3390  10.3908
    11.3958  11.4454  14.1965

     occupation numbers 
     1.0000   1.0000   1.0000   1.0000   1.0000   1.0000   1.0000   1.0000
     1.0000   1.0000   1.0000   1.0000   1.0000   1.0000   1.0000   1.0000
     1.0000   1.0000   1.0309   0.0003   0.0000   0.0000   0.0000   0.0000
     0.0000   0.0000   0.0000

          k = 0.2500 0.4330 0.0000 (  3819 PWs)   bands (ev):

   -89.3252 -52.5811 -52.5609 -52.5412 -27.2393 -12.0169 -11.4706 -11.0761
   -11.0037 -10.5892   0.9606   1.0802   2.0182   2.7450   2.8029   4.1071
     5.1870   5.5310   6.0830   7.7488   7.9442   8.0527   8.5107   9.2532
    10.5192  11.0223  14.3390

     occupation numbers 
     1.0000   1.0000   1.0000   1.0000   1.0000   1.0000   1.0000   1.0000
     1.0000   1.0000   1.0000   1.0000   1.0000   1.0000   1.0000   1.0000
     1.0000   1.0001   1.0830   0.0000   0.0000   0.0000   0.0000   0.0000
     0.0000   0.0000   0.0000

          k = 0.2500 0.4330 0.0976 (  3817 PWs)   bands (ev):

   -89.3252 -52.5810 -52.5610 -52.5411 -27.2393 -12.0169 -11.4706 -11.0759
   -11.0037 -10.5893   0.9607   1.0802   2.0182   2.7447   2.8027   4.1076
     5.1867   5.5301   6.0870   7.6963   7.9643   8.0964   8.5075   9.2392
    10.5226  11.0177  14.3898

     occupation numbers 
     1.0000   1.0000   1.0000   1.0000   1.0000   1.0000   1.0000   1.0000
     1.0000   1.0000   1.0000   1.0000   1.0000   1.0000   1.0000   1.0000
     1.0000   1.0001   1.0832   0.0000   0.0000   0.0000   0.0000   0.0000
     0.0000   0.0000   0.0000

          k = 0.2500 0.5774 0.0000 (  3813 PWs)   bands (ev):

   -89.3247 -52.5815 -52.5673 -52.5402 -27.1679 -12.0454 -11.3301 -11.2384
   -11.1591 -10.5265   0.8044   1.1768   1.8579   2.8594   3.0574   3.6641
     4.9193   5.7286   5.9849   7.9440   8.0014   8.1095   8.5404   9.6401
    10.1814  11.4788  15.4109

     occupation numbers 
     1.0000   1.0000   1.0000   1.0000   1.0000   1.0000   1.0000   1.0000
     1.0000   1.0000   1.0000   1.0000   1.0000   1.0000   1.0000   1.0000
     1.0000   1.0041   1.0585   0.0000   0.0000   0.0000   0.0000   0.0000
     0.0000   0.0000   0.0000

          k = 0.2500 0.5774 0.0976 (  3823 PWs)   bands (ev):

   -89.3247 -52.5816 -52.5673 -52.5403 -27.1679 -12.0454 -11.3301 -11.2383
   -11.1592 -10.5265   0.8047   1.1768   1.8582   2.8585   3.0577   3.6631
     4.9194   5.7278   5.9871   7.9050   7.9681   8.1924   8.5314   9.6509
    10.1737  11.4762  15.3927

     occupation numbers 
     1.0000   1.0000   1.0000   1.0000   1.0000   1.0000   1.0000   1.0000
     1.0000   1.0000   1.0000   1.0000   1.0000   1.0000   1.0000   1.0000
     1.0000   1.0041   1.0593   0.0000   0.0000   0.0000   0.0000   0.0000
     0.0000   0.0000   0.0000

          k = 0.0000-0.1443 0.0976 (  3828 PWs)   bands (ev):

   -89.3292 -52.5477 -52.5460 -52.5401 -27.7857 -12.6588 -11.0826 -10.9557
   -10.2469  -9.8906   1.0891   1.1937   1.4773   3.8136   4.2159   4.4568
     5.2667   5.5473   5.6143   6.1542   8.0211   8.3090   8.6084   8.6194
     9.9616  11.1622  13.0052

     occupation numbers 
     1.0000   1.0000   1.0000   1.0000   1.0000   1.0000   1.0000   1.0000
     1.0000   1.0000   1.0000   1.0000   1.0000   1.0000   1.0000   1.0000
     1.0000   1.0002   1.0007   1.0687   0.0000   0.0000   0.0000   0.0000
     0.0000   0.0000   0.0000

          k = 0.0000-0.2887 0.0976 (  3809 PWs)   bands (ev):

   -89.3275 -52.5647 -52.5449 -52.5446 -27.5682 -12.2173 -11.2370 -10.9852
   -10.8819 -10.1026   0.9413   1.5372   1.7456   2.5236   3.6595   4.8338
     5.4124   5.7528   5.9596   6.6515   7.4392   8.1299   8.4922   8.6450
    10.1991  12.6604  12.7011

     occupation numbers 
     1.0000   1.0000   1.0000   1.0000   1.0000   1.0000   1.0000   1.0000
     1.0000   1.0000   1.0000   1.0000   1.0000   1.0000   1.0000   1.0000
     1.0000   1.0058   1.0498   0.0941   0.0000   0.0000   0.0000   0.0000
     0.0000   0.0000   0.0000

          k = 0.0000-0.4330 0.0976 (  3823 PWs)   bands (ev):

   -89.3259 -52.5834 -52.5492 -52.5422 -27.3371 -12.1383 -11.6836 -11.0647
   -10.6757 -10.3041   0.4914   1.5479   1.9609   2.5629   3.4764   4.3751
     5.2879   5.5063   5.7697   6.5564   7.3206   7.8783   8.5307   9.4999
    11.6630  12.8263  13.1247

     occupation numbers 
     1.0000   1.0000   1.0000   1.0000   1.0000   1.0000   1.0000   1.0000
     1.0000   1.0000   1.0000   1.0000   1.0000   1.0000   1.0000   1.0000
     1.0000   1.0001   1.0073   0.2281   0.0000   0.0000   0.0000   0.0000
     0.0000   0.0000   0.0000

          k =-0.1250-0.3608 0.0976 (  3805 PWs)   bands (ev):

   -89.3263 -52.5751 -52.5505 -52.5430 -27.4069 -11.8675 -11.7403 -11.0186
   -10.7379 -10.4287   0.9001   1.3951   1.9716   2.4680   3.1019   4.6685
     5.3778   5.6582   5.9858   7.3434   7.5156   7.9628   8.2530   8.8560
    10.4618  12.0988  13.2737

     occupation numbers 
     1.0000   1.0000   1.0000   1.0000   1.0000   1.0000   1.0000   1.0000
     1.0000   1.0000   1.0000   1.0000   1.0000   1.0000   1.0000   1.0000
     1.0000   1.0014   1.0589   0.0000   0.0000   0.0000   0.0000   0.0000
     0.0000   0.0000   0.0000

          k =-0.1250-0.5052 0.0976 (  3819 PWs)   bands (ev):

   -89.3252 -52.5869 -52.5552 -52.5411 -27.2381 -12.2994 -11.4157 -11.1306
   -10.6510 -10.5880   0.4003   1.4064   2.2486   2.7173   3.0642   4.0898
     5.1296   5.4229   5.9023   7.0381   7.4152   7.9694   8.3305  10.3616
    11.3993  11.4506  14.2813

     occupation numbers 
     1.0000   1.0000   1.0000   1.0000   1.0000   1.0000   1.0000   1.0000
     1.0000   1.0000   1.0000   1.0000   1.0000   1.0000   1.0000   1.0000
     1.0000   1.0000   1.0316   0.0002   0.0000   0.0000   0.0000   0.0000
     0.0000   0.0000   0.0000

 ------ SPIN DOWN ----------


          k = 0.0000 0.0000 0.0000 (  3827 PWs)   bands (ev):

   -88.6620 -51.9364 -51.9364 -51.7989 -27.9406 -12.7465 -11.2112 -10.8636
    -9.8654  -9.8654   1.1541   1.5689   1.5689   4.3487   4.5338   5.0501
     5.0501   5.4297   5.4297   6.8484   7.8248   8.3280   8.9889   8.9889
    10.4473  10.4473  13.4869

     occupation numbers 
     1.0000   1.0000   1.0000   1.0000   1.0000   1.0000   1.0000   1.0000
     1.0000   1.0000   1.0000   1.0000   1.0000   1.0000   1.0000   1.0000
     1.0000   1.0000   1.0000   0.0073   0.0000   0.0000   0.0000   0.0000
     0.0000   0.0000   0.0000

          k = 0.0000 0.0000 0.0976 (  3838 PWs)   bands (ev):

   -88.6620 -51.9364 -51.9364 -51.7990 -27.9406 -12.7466 -11.2095 -10.8653
    -9.8654  -9.8654   1.1681   1.5689   1.5689   4.0181   4.9270   5.0502
     5.0502   5.4297   5.4297   6.8037   7.8522   8.2272   8.9889   8.9889
    10.4473  10.4473  13.7197

     occupation numbers 
     1.0000   1.0000   1.0000   1.0000   1.0000   1.0000   1.0000   1.0000
     1.0000   1.0000   1.0000   1.0000   1.0000   1.0000   1.0000   1.0000
     1.0000   1.0000   1.0000   0.0142   0.0000   0.0000   0.0000   0.0000
     0.0000   0.0000   0.0000

          k = 0.0000 0.1443 0.0000 (  3809 PWs)   bands (ev):

   -88.6613 -51.9443 -51.9383 -51.7977 -27.8527 -12.5779 -11.1306 -10.8681
   -10.3229  -9.9578   1.3413   1.3939   1.6745   3.9949   4.4536   4.7046
     5.1349   5.7640   5.9395   6.9007   8.0074   8.3079   8.7031   8.8845
     9.7681  11.0123  13.1690

     occupation numbers 
     1.0000   1.0000   1.0000   1.0000   1.0000   1.0000   1.0000   1.0000
     1.0000   1.0000   1.0000   1.0000   1.0000   1.0000   1.0000   1.0000
     1.0000   1.0068   1.0431   0.0031   0.0000   0.0000   0.0000   0.0000
     0.0000   0.0000   0.0000

          k = 0.0000 0.1443 0.0976 (  3828 PWs)   bands (ev):

   -88.6613 -51.9444 -51.9383 -51.7978 -27.8527 -12.5781 -11.1288 -10.8700
   -10.3229  -9.9578   1.3467   1.3967   1.6745   4.0007   4.4535   4.4917
     5.3997   5.7817   5.9395   6.8269   8.0158   8.2746   8.7070   8.8845
     9.7689  11.0123  12.9683

     occupation numbers 
     1.0000   1.0000   1.0000   1.0000   1.0000   1.0000   1.0000   1.0000
     1.0000   1.0000   1.0000   1.0000   1.0000   1.0000   1.0000   1.0000
     1.0000   1.0085   1.0431   0.0101   0.0000   0.0000   0.0000   0.0000
     0.0000   0.0000   0.0000

          k = 0.0000 0.2887 0.0000 (  3822 PWs)   bands (ev):

   -88.6596 -51.9637 -51.9429 -51.7950 -27.6315 -12.1353 -11.3323 -10.9357
   -10.8871 -10.1725   1.1161   1.7552   1.9271   2.7074   3.8592   5.0010
     5.9183   6.2277   6.2370   6.7908   7.5460   8.1542   8.5166   8.7508
     9.9967  12.5669  12.6744

     occupation numbers 
     1.0000   1.0000   1.0000   1.0000   1.0000   1.0000   1.0000   1.0000
     1.0000   1.0000   1.0000   1.0000   1.0000   1.0000   1.0000   1.0000
     1.0363   0.9997   0.9864   0.0170   0.0000   0.0000   0.0000   0.0000
     0.0000   0.0000   0.0000

          k = 0.0000 0.2887 0.0976 (  3809 PWs)   bands (ev):

   -88.6596 -51.9636 -51.9429 -51.7949 -27.6315 -12.1354 -11.3323 -10.9298
   -10.8928 -10.1725   1.1142   1.7583   1.9271   2.7113   3.8592   4.9784
     5.8913   6.2277   6.3327   6.7009   7.7782   7.8633   8.6236   8.7509
    10.0190  12.5433  12.5659

     occupation numbers 
     1.0000   1.0000   1.0000   1.0000   1.0000   1.0000   1.0000   1.0000
     1.0000   1.0000   1.0000   1.0000   1.0000   1.0000   1.0000   1.0000
     1.0286   0.9997   0.7908   0.0544   0.0000   0.0000   0.0000   0.0000
     0.0000   0.0000   0.0000

          k = 0.0000 0.4330 0.0000 (  3818 PWs)   bands (ev):

   -88.6579 -51.9829 -51.9476 -51.7920 -27.3964 -12.2490 -11.5997 -10.9763
   -10.7146 -10.3766   0.6356   1.6539   2.1374   2.8365   3.5985   4.5295
     5.9135   6.0808   6.2643   6.4248   7.1920   8.1590   8.7844   9.3929
    11.4664  12.7657  12.9639

     occupation numbers 
     1.0000   1.0000   1.0000   1.0000   1.0000   1.0000   1.0000   1.0000
     1.0000   1.0000   1.0000   1.0000   1.0000   1.0000   1.0000   1.0000
     1.0349   1.0828   0.9407   0.5422   0.0000   0.0000   0.0000   0.0000
     0.0000   0.0000   0.0000

          k = 0.0000 0.4330 0.0976 (  3823 PWs)   bands (ev):

   -88.6579 -51.9830 -51.9476 -51.7920 -27.3964 -12.2490 -11.5998 -10.9760
   -10.7148 -10.3766   0.6358   1.6527   2.1374   2.8388   3.5985   4.5249
     5.9167   6.0808   6.2633   6.4160   7.2562   8.0511   8.7845   9.4659
    11.4633  12.7654  12.9247

     occupation numbers 
     1.0000   1.0000   1.0000   1.0000   1.0000   1.0000   1.0000   1.0000
     1.0000   1.0000   1.0000   1.0000   1.0000   1.0000   1.0000   1.0000
     1.0359   1.0828   0.9426   0.5664   0.0000   0.0000   0.0000   0.0000
     0.0000   0.0000   0.0000

          k = 0.0000-0.5774 0.0000 (  3830 PWs)   bands (ev):

   -88.6572 -51.9910 -51.9495 -51.7908 -27.2943 -12.6098 -11.2308 -11.1414
   -10.6242 -10.4584   0.2450   1.8097   2.1891   3.0095   3.5902   4.2499
     5.7964   5.9251   6.0156   6.2847   6.9793   8.3475   8.8349  10.9204
    11.1961  12.5992  13.3714

     occupation numbers 
     1.0000   1.0000   1.0000   1.0000   1.0000   1.0000   1.0000   1.0000
     1.0000   1.0000   1.0000   1.0000   1.0000   1.0000   1.0000   1.0000
     1.0102   1.0384   1.0687   0.9010   0.0008   0.0000   0.0000   0.0000
     0.0000   0.0000   0.0000

          k = 0.0000-0.5774 0.0976 (  3834 PWs)   bands (ev):

   -88.6572 -51.9910 -51.9496 -51.7909 -27.2943 -12.6098 -11.2307 -11.1414
   -10.6241 -10.4584   0.2454   1.8088   2.1891   3.0120   3.5902   4.2417
     5.8001   5.9251   6.0161   6.2883   6.9966   8.3270   8.8350  10.8913
    11.1978  12.5989  13.4501

     occupation numbers 
     1.0000   1.0000   1.0000   1.0000   1.0000   1.0000   1.0000   1.0000
     1.0000   1.0000   1.0000   1.0000   1.0000   1.0000   1.0000   1.0000
     1.0107   1.0384   1.0689   0.8936   0.0005   0.0000   0.0000   0.0000
     0.0000   0.0000   0.0000

          k = 0.1250 0.2165 0.0000 (  3807 PWs)   bands (ev):

   -88.6601 -51.9571 -51.9424 -51.7957 -27.6978 -12.2722 -10.9963 -10.9902
   -10.8807 -10.1728   1.2118   1.6675   1.8215   3.1393   3.7339   5.0443
     5.8994   6.0874   6.2572   6.8793   7.7320   8.3893   8.5857   8.8755
     9.0352  12.2514  12.8699

     occupation numbers 
     1.0000   1.0000   1.0000   1.0000   1.0000   1.0000   1.0000   1.0000
     1.0000   1.0000   1.0000   1.0000   1.0000   1.0000   1.0000   1.0000
     1.0308   1.0832   0.9535   0.0044   0.0000   0.0000   0.0000   0.0000
     0.0000   0.0000   0.0000

          k = 0.1250 0.2165 0.0976 (  3820 PWs)   bands (ev):

   -88.6601 -51.9571 -51.9425 -51.7958 -27.6978 -12.2723 -10.9964 -10.9875
   -10.8834 -10.1728   1.2096   1.6720   1.8221   3.1432   3.7339   4.9877
     5.8994   6.1053   6.3747   6.7886   7.8175   8.1969   8.6655   8.8755
     9.0834  12.2503  12.7427

     occupation numbers 
     1.0000   1.0000   1.0000   1.0000   1.0000   1.0000   1.0000   1.0000
     1.0000   1.0000   1.0000   1.0000   1.0000   1.0000   1.0000   1.0000
     1.0308   1.0828   0.6804   0.0176   0.0000   0.0000   0.0000   0.0000
     0.0000   0.0000   0.0000

          k = 0.1250 0.3608 0.0000 (  3816 PWs)   bands (ev):

   -88.6584 -51.9744 -51.9491 -51.7929 -27.4674 -11.8447 -11.7838 -10.9309
   -10.7775 -10.5052   1.0605   1.5281   2.1478   2.7107   3.2666   4.8155
     5.9671   6.3481   6.5073   7.0978   7.4692   8.1439   8.4283   8.7328
    10.3123  11.9966  13.2339

     occupation numbers 
     1.0000   1.0000   1.0000   1.0000   1.0000   1.0000   1.0000   1.0000
     1.0000   1.0000   1.0000   1.0000   1.0000   1.0000   1.0000   1.0000
     1.0524   0.7513   0.3302   0.0001   0.0000   0.0000   0.0000   0.0000
     0.0000   0.0000   0.0000

          k = 0.1250 0.3608 0.0976 (  3805 PWs)   bands (ev):

   -88.6584 -51.9744 -51.9490 -51.7929 -27.4674 -11.8445 -11.7841 -10.9301
   -10.7782 -10.5052   1.0601   1.5278   2.1478   2.7132   3.2667   4.8143
     5.9673   6.3485   6.5065   7.0765   7.5371   7.9950   8.5303   8.7366
    10.3272  11.9920  13.1849

     occupation numbers 
     1.0000   1.0000   1.0000   1.0000   1.0000   1.0000   1.0000   1.0000
     1.0000   1.0000   1.0000   1.0000   1.0000   1.0000   1.0000   1.0000
     1.0525   0.7504   0.3322   0.0001   0.0000   0.0000   0.0000   0.0000
     0.0000   0.0000   0.0000

          k = 0.1250 0.5052 0.0000 (  3825 PWs)   bands (ev):

   -88.6572 -51.9866 -51.9538 -51.7909 -27.2956 -12.4125 -11.3308 -11.0416
   -10.7311 -10.6254   0.5308   1.5227   2.4006   2.9309   3.2168   4.2383
     5.9391   6.0297   6.4129   6.7581   7.2518   8.2889   8.5849  10.2161
    11.2578  11.3179  14.1334

     occupation numbers 
     1.0000   1.0000   1.0000   1.0000   1.0000   1.0000   1.0000   1.0000
     1.0000   1.0000   1.0000   1.0000   1.0000   1.0000   1.0000   1.0000
     1.0429   1.0729   0.5749   0.0266   0.0000   0.0000   0.0000   0.0000
     0.0000   0.0000   0.0000

          k = 0.1250 0.5052 0.0976 (  3819 PWs)   bands (ev):

   -88.6572 -51.9866 -51.9538 -51.7909 -27.2956 -12.4125 -11.3309 -11.0416
   -10.7311 -10.6255   0.5312   1.5223   2.4000   2.9323   3.2173   4.2336
     5.9413   6.0286   6.4154   6.7589   7.2670   8.2553   8.5998  10.2185
    11.2588  11.3134  14.1541

     occupation numbers 
     1.0000   1.0000   1.0000   1.0000   1.0000   1.0000   1.0000   1.0000
     1.0000   1.0000   1.0000   1.0000   1.0000   1.0000   1.0000   1.0000
     1.0437   1.0727   0.5682   0.0264   0.0000   0.0000   0.0000   0.0000
     0.0000   0.0000   0.0000

          k = 0.2500 0.4330 0.0000 (  3819 PWs)   bands (ev):

   -88.6572 -51.9806 -51.9597 -51.7909 -27.2968 -12.1250 -11.3859 -11.0921
   -10.9869 -10.6267   1.0770   1.2311   2.1237   2.9064   3.0573   4.2589
     6.0254   6.1197   6.5698   7.6145   8.2081   8.2222   8.3319   9.0200
    10.3803  10.9439  14.3142

     occupation numbers 
     1.0000   1.0000   1.0000   1.0000   1.0000   1.0000   1.0000   1.0000
     1.0000   1.0000   1.0000   1.0000   1.0000   1.0000   1.0000   1.0000
     1.0717   1.0808   0.2041   0.0000   0.0000   0.0000   0.0000   0.0000
     0.0000   0.0000   0.0000

          k = 0.2500 0.4330 0.0976 (  3817 PWs)   bands (ev):

   -88.6572 -51.9806 -51.9598 -51.7909 -27.2968 -12.1250 -11.3860 -11.0920
   -10.9868 -10.6267   1.0771   1.2311   2.1237   2.9060   3.0569   4.2597
     6.0252   6.1180   6.5779   7.5841   8.2199   8.2639   8.3168   9.0029
    10.3840  10.9390  14.3646

     occupation numbers 
     1.0000   1.0000   1.0000   1.0000   1.0000   1.0000   1.0000   1.0000
     1.0000   1.0000   1.0000   1.0000   1.0000   1.0000   1.0000   1.0000
     1.0717   1.0812   0.1904   0.0000   0.0000   0.0000   0.0000   0.0000
     0.0000   0.0000   0.0000

          k = 0.2500 0.5774 0.0000 (  3813 PWs)   bands (ev):

   -88.6567 -51.9811 -51.9663 -51.7899 -27.2241 -12.1537 -11.4247 -11.1538
   -11.0691 -10.5627   0.9286   1.3028   1.9544   3.0268   3.2981   3.7894
     5.8178   6.2941   6.5083   7.8963   8.1926   8.2883   8.3523   9.4838
     9.9138  11.4449  15.3215

     occupation numbers 
     1.0000   1.0000   1.0000   1.0000   1.0000   1.0000   1.0000   1.0000
     1.0000   1.0000   1.0000   1.0000   1.0000   1.0000   1.0000   1.0000
     1.0132   0.8812   0.3281   0.0000   0.0000   0.0000   0.0000   0.0000
     0.0000   0.0000   0.0000

          k = 0.2500 0.5774 0.0976 (  3823 PWs)   bands (ev):

   -88.6567 -51.9811 -51.9664 -51.7900 -27.2241 -12.1537 -11.4247 -11.1538
   -11.0691 -10.5627   0.9289   1.3028   1.9547   3.0258   3.2985   3.7881
     5.8180   6.2927   6.5121   7.8622   8.2229   8.3032   8.3408   9.4975
     9.9050  11.4412  15.2870

     occupation numbers 
     1.0000   1.0000   1.0000   1.0000   1.0000   1.0000   1.0000   1.0000
     1.0000   1.0000   1.0000   1.0000   1.0000   1.0000   1.0000   1.0000
     1.0133   0.8842   0.3194   0.0000   0.0000   0.0000   0.0000   0.0000
     0.0000   0.0000   0.0000

          k = 0.0000-0.1443 0.0976 (  3828 PWs)   bands (ev):

   -88.6613 -51.9444 -51.9383 -51.7978 -27.8527 -12.5781 -11.1288 -10.8700
   -10.3229  -9.9578   1.3496   1.3938   1.6745   3.9914   4.4536   4.5101
     5.3804   5.7936   5.9395   6.8324   7.9682   8.3142   8.7079   8.8845
     9.7687  11.0122  12.9816

     occupation numbers 
     1.0000   1.0000   1.0000   1.0000   1.0000   1.0000   1.0000   1.0000
     1.0000   1.0000   1.0000   1.0000   1.0000   1.0000   1.0000   1.0000
     1.0000   1.0099   1.0431   0.0093   0.0000   0.0000   0.0000   0.0000
     0.0000   0.0000   0.0000

          k = 0.0000-0.2887 0.0976 (  3809 PWs)   bands (ev):

   -88.6596 -51.9636 -51.9429 -51.7949 -27.6315 -12.1354 -11.3323 -10.9299
   -10.8927 -10.1725   1.1146   1.7568   1.9271   2.7123   3.8592   4.9784
     5.8890   6.2277   6.3238   6.7666   7.5156   8.1545   8.5336   8.7508
    10.0018  12.5659  12.6265

     occupation numbers 
     1.0000   1.0000   1.0000   1.0000   1.0000   1.0000   1.0000   1.0000
     1.0000   1.0000   1.0000   1.0000   1.0000   1.0000   1.0000   1.0000
     1.0280   0.9997   0.8126   0.0238   0.0000   0.0000   0.0000   0.0000
     0.0000   0.0000   0.0000

          k = 0.0000-0.4330 0.0976 (  3823 PWs)   bands (ev):

   -88.6579 -51.9830 -51.9476 -51.7920 -27.3964 -12.2490 -11.5998 -10.9760
   -10.7148 -10.3766   0.6355   1.6529   2.1374   2.8377   3.5985   4.5301
     5.9155   6.0808   6.2550   6.4386   7.1867   8.1644   8.7845   9.3645
    11.4618  12.7656  13.0520

     occupation numbers 
     1.0000   1.0000   1.0000   1.0000   1.0000   1.0000   1.0000   1.0000
     1.0000   1.0000   1.0000   1.0000   1.0000   1.0000   1.0000   1.0000
     1.0355   1.0828   0.9572   0.5044   0.0000   0.0000   0.0000   0.0000
     0.0000   0.0000   0.0000

          k =-0.1250-0.3608 0.0976 (  3805 PWs)   bands (ev):

   -88.6584 -51.9744 -51.9490 -51.7929 -27.4674 -11.8444 -11.7842 -10.9301
   -10.7782 -10.5052   1.0599   1.5278   2.1475   2.7136   3.2664   4.8164
     5.9668   6.3490   6.5014   7.1147   7.4465   8.1230   8.4590   8.7308
    10.3103  12.0012  13.2473

     occupation numbers 
     1.0000   1.0000   1.0000   1.0000   1.0000   1.0000   1.0000   1.0000
     1.0000   1.0000   1.0000   1.0000   1.0000   1.0000   1.0000   1.0000
     1.0523   0.7490   0.3440   0.0000   0.0000   0.0000   0.0000   0.0000
     0.0000   0.0000   0.0000

          k =-0.1250-0.5052 0.0976 (  3819 PWs)   bands (ev):

   -88.6572 -51.9866 -51.9538 -51.7909 -27.2956 -12.4125 -11.3309 -11.0416
   -10.7311 -10.6254   0.5311   1.5225   2.4005   2.9309   3.2168   4.2368
     5.9392   6.0283   6.4206   6.7614   7.2478   8.2849   8.5912  10.1901
    11.2608  11.3169  14.2347

     occupation numbers 
     1.0000   1.0000   1.0000   1.0000   1.0000   1.0000   1.0000   1.0000
     1.0000   1.0000   1.0000   1.0000   1.0000   1.0000   1.0000   1.0000
     1.0430   1.0726   0.5538   0.0255   0.0000   0.0000   0.0000   0.0000
     0.0000   0.0000   0.0000

     the Fermi energy is     6.4781 ev

!    total energy              =    -572.84853398 Ry
     total all-electron energy =     -4291.959370 Ry
     estimated scf accuracy    <       0.00000006 Ry
     smearing contrib. (-TS)   =       0.00252088 Ry
     internal energy E=F+TS    =    -572.85105485 Ry

     The total energy is F=E-TS. E is the sum of the following terms:
     one-electron contribution =    -613.45043457 Ry
     hartree contribution      =     321.55714436 Ry
     xc contribution           =     -56.59409990 Ry
     ewald contribution        =     -62.15911747 Ry
     one-center paw contrib.   =    -162.20454728 Ry
      -> PAW hartree energy AE =     308.72834338 Ry
      -> PAW hartree energy PS =    -307.38153625 Ry
      -> PAW xc energy AE      =    -216.90916674 Ry
      -> PAW xc energy PS      =      53.35781234 Ry
      -> total E_H with PAW    =     322.90395148 Ry
      -> total E_XC with PAW   =    -220.14545430 Ry

     total magnetization       =     0.52 Bohr mag/cell
     absolute magnetization    =     0.89 Bohr mag/cell

     convergence has been achieved in  29 iterations

     Forces acting on atoms (cartesian axes, Ry/au):

     atom    1 type  1   force =     0.00000000    0.00000000    0.00442129
     atom    2 type  2   force =     0.00000000    0.00000000   -0.01915628
     atom    3 type  2   force =     0.00000000    0.00000000    0.01001978
     atom    4 type  3   force =     0.00000000    0.00000000    0.00471522
     The non-local contrib.  to forces
     atom    1 type  1   force =    -0.00000000   -0.00000000    0.00333710
     atom    2 type  2   force =     0.00000000    0.00000000   -1.08456397
     atom    3 type  2   force =     0.00000000    0.00000000    1.01504173
     atom    4 type  3   force =     0.00000000    0.00000000    0.01906759
     The ionic contribution  to forces
     atom    1 type  1   force =    -0.00000000   -0.00000000    2.24150382
     atom    2 type  2   force =     0.00000000   -0.00000000   35.42819350
     atom    3 type  2   force =    -0.00000000    0.00000000  -33.84975805
     atom    4 type  3   force =     0.00000000   -0.00000000   -3.81993927
     The local contribution  to forces
     atom    1 type  1   force =    -0.00000000   -0.00000000   -2.24011362
     atom    2 type  2   force =     0.00000001   -0.00000001  -34.37247290
     atom    3 type  2   force =    -0.00000001    0.00000001   32.85381811
     atom    4 type  3   force =     0.00000000    0.00000000    3.80598373
     The core correction contribution to forces
     atom    1 type  1   force =     0.00000000   -0.00000000   -0.00003141
     atom    2 type  2   force =    -0.00000000    0.00000000    0.00950843
     atom    3 type  2   force =     0.00000000   -0.00000000   -0.00880697
     atom    4 type  3   force =     0.00000000   -0.00000000   -0.00056208
     The Hubbard contrib.    to forces
     atom    1 type  1   force =     0.00000000    0.00000000    0.00000000
     atom    2 type  2   force =     0.00000000    0.00000000    0.00000000
     atom    3 type  2   force =     0.00000000    0.00000000    0.00000000
     atom    4 type  3   force =     0.00000000    0.00000000    0.00000000
     The SCF correction term to forces
     atom    1 type  1   force =     0.00000000    0.00000000   -0.00029046
     atom    2 type  2   force =     0.00000000   -0.00000000    0.00016280
     atom    3 type  2   force =    -0.00000000    0.00000000   -0.00029089
     atom    4 type  3   force =     0.00000000   -0.00000000    0.00014940

     Total force =     0.022564     Total SCF correction =     0.000467

     Writing all to output data dir ./out/pw.save/ :
     XML data file, charge density, pseudopotentials, collected wavefunctions
 
     init_run     :     14.17s CPU      3.34s WALL (       1 calls)
     electrons    :    188.94s CPU     48.12s WALL (       1 calls)
     forces       :      0.80s CPU      0.59s WALL (       1 calls)

     Called by init_run:
     wfcinit      :      0.28s CPU      0.35s WALL (       1 calls)
     wfcinit:atom :      0.05s CPU      0.05s WALL (      50 calls)
     wfcinit:wfcr :      0.16s CPU      0.20s WALL (      50 calls)
     potinit      :     13.26s CPU      2.31s WALL (       1 calls)
     hinit0       :      0.53s CPU      0.53s WALL (       1 calls)

     Called by electrons:
     c_bands      :     20.14s CPU     20.08s WALL (      29 calls)
     sum_band     :      4.09s CPU      4.00s WALL (      29 calls)
     v_of_rho     :      0.49s CPU      0.29s WALL (      30 calls)
     v_h          :      0.33s CPU      0.06s WALL (      30 calls)
     v_xc         :      0.17s CPU      0.24s WALL (      31 calls)
     newd         :      0.94s CPU      0.77s WALL (      30 calls)
                                        0.77s GPU  (      30 calls)
     PAW_pot      :    166.89s CPU     22.66s WALL (      30 calls)
     mix_rho      :      1.06s CPU      0.99s WALL (      29 calls)

     Called by c_bands:
     init_us_2    :      1.29s CPU      1.22s WALL (    3000 calls)
     cegterg      :     17.45s CPU     17.47s WALL (    1450 calls)

     Called by sum_band:
     sum_band:wei :      0.04s CPU      0.04s WALL (      29 calls)
                                        0.04s GPU  (      29 calls)
     sum_band:loo :      2.22s CPU      2.12s WALL (      29 calls)
                                        2.12s GPU  (      29 calls)
     sum_band:buf :      0.30s CPU      0.33s WALL (    1450 calls)
                                        0.31s GPU  (    1450 calls)
     sum_band:ini :      0.62s CPU      0.61s WALL (    1450 calls)
                                        0.59s GPU  (    1450 calls)
     sum_band:cal :      0.06s CPU      0.09s WALL (    1450 calls)
                                        0.07s GPU  (    1450 calls)
     sum_band:bec :      0.33s CPU      0.34s WALL (    1450 calls)
                                        0.32s GPU  (    1450 calls)
     addusdens    :      1.58s CPU      1.59s WALL (      29 calls)
                                        1.59s GPU  (      29 calls)
     addusd:skk   :      0.00s CPU      0.01s WALL (      87 calls)
                                        0.01s GPU  (      87 calls)

     Called by *egterg:
     cdiaghg      :      5.86s CPU      6.06s WALL (    6696 calls)
                                        5.98s GPU  (    6696 calls)
     cegterg:over :      1.56s CPU      1.62s WALL (    5246 calls)
     cegterg:upda :      1.02s CPU      1.02s WALL (    5246 calls)
     cegterg:last :      0.19s CPU      0.18s WALL (    2736 calls)
     h_psi        :      6.35s CPU      6.34s WALL (    6746 calls)
                                        6.26s GPU  (    6746 calls)
     s_psi        :      1.04s CPU      1.09s WALL (    6746 calls)
     g_psi        :      0.03s CPU      0.13s WALL (    5246 calls)
                                        0.07s GPU  (    5246 calls)

     Called by h_psi:
     h_psi:calbec :      0.20s CPU      0.38s WALL (    6746 calls)
                                        0.30s GPU  (    6746 calls)
     vloc_psi     :      4.46s CPU      4.34s WALL (    6746 calls)
                                        4.25s GPU  (    6746 calls)
     add_vuspsi   :      0.95s CPU      1.14s WALL (    6746 calls)
                                        1.05s GPU  (    6746 calls)

     General routines
     calbec       :      0.22s CPU      0.26s WALL (    8396 calls)
     fft          :      3.81s CPU      0.67s WALL (     763 calls)
                                        0.03s GPU  (     703 calls)
     ffts         :      4.40s CPU      0.85s WALL (    1160 calls)
                                        0.03s GPU  (    1100 calls)
     fftw         :      0.43s CPU      1.54s WALL (   22298 calls)
                                        1.30s GPU  (   22298 calls)
     interpolate  :      8.43s CPU      1.49s WALL (      60 calls)
 
     Parallel routines

     PAW routines
     PAW_pot      :    166.89s CPU     22.66s WALL (      30 calls)
     PAW_symme    :      0.01s CPU      0.01s WALL (      59 calls)
 
     PWSCF        :   3m24.90s CPU     52.68s WALL

 
   This run was terminated on:   5:39:37  12Jul2026            

=------------------------------------------------------------------------------=
   JOB DONE.
=------------------------------------------------------------------------------=
Warning: ieee_divide_by_zero is signaling
Warning: ieee_inexact is signaling
FORTRAN STOP
