
     Program PWSCF v.7.3.1 starts on 12Jul2026 at  2:13: 7 

     This program is part of the open-source Quantum ESPRESSO suite
     for quantum simulation of materials; please cite
         "P. Giannozzi et al., J. Phys.:Condens. Matter 21 395502 (2009);
         "P. Giannozzi et al., J. Phys.:Condens. Matter 29 465901 (2017);
         "P. Giannozzi et al., J. Chem. Phys. 152 154105 (2020);
          URL http://www.quantum-espresso.org", 
     in publications or presentations arising from this work. More details at
     http://www.quantum-espresso.org/quote

     Parallel version (MPI & OpenMP), running on      14 processor cores
     Number of MPI processes:                 1
     Threads/MPI process:                    14

     MPI processes distributed on     1 nodes
     853704 MiB available memory on the printing compute node when the environment starts
 
     Reading input from pw.in

     Current dimensions of program PWSCF are:
     Max number of different atomic species (ntypx) = 10
     Max number of k-points (npk) =  40000
     Max angular momentum in pseudopotentials (lmaxx) =  4
     file Co.pbe-spn-kjpaw_psl.0.3.1.UPF: wavefunction(s)  3P 3D renormalized
     file O.pbe-n-kjpaw_psl.1.0.0.UPF: wavefunction(s)  2S 2P renormalized
     file Na.pbe-spn-kjpaw_psl.1.0.0.UPF: wavefunction(s)  2P renormalized
 
     Subspace diagonalization in iterative solution of the eigenvalue problem:
     a serial algorithm will be used

 
     G-vector sticks info
     --------------------
     sticks:   dense  smooth     PW     G-vecs:    dense   smooth      PW
     Sum         979     499    151                47419    16845    2747
 
     Using Slab Decomposition
 


     bravais-lattice index     =            4
     lattice parameter (alat)  =       5.4575  a.u.
     unit-cell volume          =     268.0923 (a.u.)^3
     number of atoms/cell      =            4
     number of atomic types    =            3
     number of electrons       =        38.00
     number of Kohn-Sham states=           27
     kinetic-energy cutoff     =      60.0000  Ry
     charge density cutoff     =     480.0000  Ry
     scf convergence threshold =      1.0E-08
     mixing beta               =       0.3000
     number of iterations used =            8  plain     mixing
     Exchange-correlation= SLA  PW   PBX  PBC
                           (   1   4   3   4   0   0   0)

     GPU acceleration is ACTIVE.  1 visible GPUs per MPI rank
     GPU-aware MPI enabled


     GPU used by master process:

        Device Number: 0
        Device name: NVIDIA A100-SXM4-80GB
        Compute capability : 80
        Ratio of single to double precision performance  : 2
        Memory Clock Rate (KHz): 1593000
        Memory Bus Width (bits): 5120
        Peak Memory Bandwidth (GB/s): ******

     celldm(1)=   5.457529  celldm(2)=   0.000000  celldm(3)=   1.904432
     celldm(4)=   0.000000  celldm(5)=   0.000000  celldm(6)=   0.000000

     crystal axes: (cart. coord. in units of alat)
               a(1) = (   1.000000   0.000000   0.000000 )  
               a(2) = (  -0.500000   0.866025   0.000000 )  
               a(3) = (   0.000000   0.000000   1.904432 )  

     reciprocal axes: (cart. coord. in units 2 pi/alat)
               b(1) = (  1.000000  0.577350 -0.000000 )  
               b(2) = (  0.000000  1.154701  0.000000 )  
               b(3) = (  0.000000 -0.000000  0.525091 )  


     PseudoPot. # 1 for Co read from file:
     ../../pseudo/Co.pbe-spn-kjpaw_psl.0.3.1.UPF
     MD5 check sum: 3c0a43779828c046024e4f3be63f8e67
     Pseudo is Projector augmented-wave + core cor, Zval = 17.0
     Generated using &quot;atomic&quot; code by A. Dal Corso  v.6.2.2
     Shape of augmentation charge: PSQ
     Using radial grid of 1193 points,  6 beta functions with: 
                l(1) =   0
                l(2) =   0
                l(3) =   1
                l(4) =   1
                l(5) =   2
                l(6) =   2
     Q(r) pseudized with 0 coefficients 


     PseudoPot. # 2 for O  read from file:
     ../../pseudo/O.pbe-n-kjpaw_psl.1.0.0.UPF
     MD5 check sum: e99d9cef9b487d1ca56f5b95ecd0fd7a
     Pseudo is Projector augmented-wave + core cor, Zval =  6.0
     Generated using &quot;atomic&quot; code by A. Dal Corso  v.6.3
     Shape of augmentation charge: PSQ
     Using radial grid of 1095 points,  4 beta functions with: 
                l(1) =   0
                l(2) =   0
                l(3) =   1
                l(4) =   1
     Q(r) pseudized with 0 coefficients 


     PseudoPot. # 3 for Na read from file:
     ../../pseudo/Na.pbe-spn-kjpaw_psl.1.0.0.UPF
     MD5 check sum: 05b4deb74e3932c23ab016979dc8b5d4
     Pseudo is Projector augmented-wave + core cor, Zval =  9.0
     Generated using &quot;atomic&quot; code by A. Dal Corso  v.6.3
     Shape of augmentation charge: PSQ
     Using radial grid of 1121 points,  4 beta functions with: 
                l(1) =   0
                l(2) =   0
                l(3) =   1
                l(4) =   1
     Q(r) pseudized with 0 coefficients 


     atomic species   valence    mass     pseudopotential
     Co               17.00    58.93300     Co( 1.00)
     O                 6.00    15.99900     O ( 1.00)
     Na                9.00    22.98977     Na( 1.00)

     Starting magnetic structure 
     atomic species   magnetization
     Co              0.300
     O               0.000
     Na              0.000

      6 Sym. Ops. (no inversion) found


                                    s                        frac. trans.

      isym =  1     identity                                     

 cryst.   s( 1) = (     1          0          0      )
                  (     0          1          0      )
                  (     0          0          1      )

 cart.    s( 1) = (  1.0000000  0.0000000  0.0000000 )
                  (  0.0000000  1.0000000  0.0000000 )
                  (  0.0000000  0.0000000  1.0000000 )


      isym =  2     120 deg rotation - cryst. axis [0,0,1]       

 cryst.   s( 2) = (     0          1          0      )
                  (    -1         -1          0      )
                  (     0          0          1      )

 cart.    s( 2) = ( -0.5000000 -0.8660254  0.0000000 )
                  (  0.8660254 -0.5000000  0.0000000 )
                  (  0.0000000  0.0000000  1.0000000 )


      isym =  3     120 deg rotation - cryst. axis [0,0,-1]      

 cryst.   s( 3) = (    -1         -1          0      )
                  (     1          0          0      )
                  (     0          0          1      )

 cart.    s( 3) = ( -0.5000000  0.8660254  0.0000000 )
                  ( -0.8660254 -0.5000000  0.0000000 )
                  (  0.0000000  0.0000000  1.0000000 )


      isym =  4     inv. 180 deg rotation - cart. axis [1,0,0]   

 cryst.   s( 4) = (    -1          0          0      )
                  (     1          1          0      )
                  (     0          0          1      )

 cart.    s( 4) = ( -1.0000000  0.0000000  0.0000000 )
                  (  0.0000000  1.0000000  0.0000000 )
                  (  0.0000000  0.0000000  1.0000000 )


      isym =  5     inv. 180 deg rotation - cryst. axis [0,1,0]  

 cryst.   s( 5) = (     1          1          0      )
                  (     0         -1          0      )
                  (     0          0          1      )

 cart.    s( 5) = (  0.5000000  0.8660254  0.0000000 )
                  (  0.8660254 -0.5000000  0.0000000 )
                  (  0.0000000  0.0000000  1.0000000 )


      isym =  6     inv. 180 deg rotation - cryst. axis [1,1,0]  

 cryst.   s( 6) = (     0         -1          0      )
                  (    -1          0          0      )
                  (     0          0          1      )

 cart.    s( 6) = (  0.5000000 -0.8660254  0.0000000 )
                  ( -0.8660254 -0.5000000  0.0000000 )
                  (  0.0000000  0.0000000  1.0000000 )


     point group C_3v (3m)  
     there are  3 classes
     the character table:

       E     2C3   3s_v 
A_1    1.00  1.00  1.00
A_2    1.00  1.00 -1.00
E      2.00 -1.00  0.00

     the symmetry operations in each class and the name of the first element:

     E        1
          identity                                               
     2C3      2    3
          120 deg rotation - cryst. axis [0,0,1]                 
     3s_v     4    5    6
          inv. 180 deg rotation - cart. axis [1,0,0]             

   Cartesian axes

     site n.     atom                  positions (alat units)
         1        Co     tau(   1) = (   0.0000000   0.0000000   0.0000000  )
         2        O      tau(   2) = (  -0.0000000   0.5773503   0.3324100  )
         3        O      tau(   3) = (   0.5000000   0.2886751   1.5720222  )
         4        Na     tau(   4) = (  -0.0000000   0.5773503   1.0041551  )

   Crystallographic axes

     site n.     atom                  positions (cryst. coord.)
         1        Co     tau(   1) = (  0.0000000  0.0000000  0.0000000  )
         2        O      tau(   2) = (  0.3333333  0.6666667  0.1745455  )
         3        O      tau(   3) = (  0.6666667  0.3333333  0.8254545  )
         4        Na     tau(   4) = (  0.3333333  0.6666667  0.5272727  )

     number of k points=    25  Marzari-Vanderbilt smearing, width (Ry)=  0.0200
                       cart. coord. in units 2pi/alat
        k(    1) = (   0.0000000   0.0000000   0.0000000), wk =   0.0052083
        k(    2) = (   0.0000000   0.0000000   0.1750303), wk =   0.0104167
        k(    3) = (   0.0000000   0.1443376   0.0000000), wk =   0.0312500
        k(    4) = (   0.0000000   0.1443376   0.1750303), wk =   0.0312500
        k(    5) = (   0.0000000   0.2886751   0.0000000), wk =   0.0312500
        k(    6) = (   0.0000000   0.2886751   0.1750303), wk =   0.0312500
        k(    7) = (   0.0000000   0.4330127   0.0000000), wk =   0.0312500
        k(    8) = (   0.0000000   0.4330127   0.1750303), wk =   0.0312500
        k(    9) = (   0.0000000  -0.5773503   0.0000000), wk =   0.0156250
        k(   10) = (   0.0000000  -0.5773503   0.1750303), wk =   0.0312500
        k(   11) = (   0.1250000   0.2165064   0.0000000), wk =   0.0312500
        k(   12) = (   0.1250000   0.2165064   0.1750303), wk =   0.0625000
        k(   13) = (   0.1250000   0.3608439   0.0000000), wk =   0.0625000
        k(   14) = (   0.1250000   0.3608439   0.1750303), wk =   0.0625000
        k(   15) = (   0.1250000   0.5051815   0.0000000), wk =   0.0625000
        k(   16) = (   0.1250000   0.5051815   0.1750303), wk =   0.0625000
        k(   17) = (   0.2500000   0.4330127   0.0000000), wk =   0.0312500
        k(   18) = (   0.2500000   0.4330127   0.1750303), wk =   0.0625000
        k(   19) = (   0.2500000   0.5773503   0.0000000), wk =   0.0312500
        k(   20) = (   0.2500000   0.5773503   0.1750303), wk =   0.0625000
        k(   21) = (   0.0000000  -0.1443376   0.1750303), wk =   0.0312500
        k(   22) = (   0.0000000  -0.2886751   0.1750303), wk =   0.0312500
        k(   23) = (   0.0000000  -0.4330127   0.1750303), wk =   0.0312500
        k(   24) = (  -0.1250000  -0.3608439   0.1750303), wk =   0.0625000
        k(   25) = (  -0.1250000  -0.5051815   0.1750303), wk =   0.0625000

                       cryst. coord.
        k(    1) = (   0.0000000   0.0000000   0.0000000), wk =   0.0052083
        k(    2) = (   0.0000000   0.0000000   0.3333333), wk =   0.0104167
        k(    3) = (   0.0000000   0.1250000   0.0000000), wk =   0.0312500
        k(    4) = (   0.0000000   0.1250000   0.3333333), wk =   0.0312500
        k(    5) = (   0.0000000   0.2500000   0.0000000), wk =   0.0312500
        k(    6) = (   0.0000000   0.2500000   0.3333333), wk =   0.0312500
        k(    7) = (   0.0000000   0.3750000   0.0000000), wk =   0.0312500
        k(    8) = (   0.0000000   0.3750000   0.3333333), wk =   0.0312500
        k(    9) = (   0.0000000  -0.5000000   0.0000000), wk =   0.0156250
        k(   10) = (   0.0000000  -0.5000000   0.3333333), wk =   0.0312500
        k(   11) = (   0.1250000   0.1250000   0.0000000), wk =   0.0312500
        k(   12) = (   0.1250000   0.1250000   0.3333333), wk =   0.0625000
        k(   13) = (   0.1250000   0.2500000   0.0000000), wk =   0.0625000
        k(   14) = (   0.1250000   0.2500000   0.3333333), wk =   0.0625000
        k(   15) = (   0.1250000   0.3750000   0.0000000), wk =   0.0625000
        k(   16) = (   0.1250000   0.3750000   0.3333333), wk =   0.0625000
        k(   17) = (   0.2500000   0.2500000   0.0000000), wk =   0.0312500
        k(   18) = (   0.2500000   0.2500000   0.3333333), wk =   0.0625000
        k(   19) = (   0.2500000   0.3750000   0.0000000), wk =   0.0312500
        k(   20) = (   0.2500000   0.3750000   0.3333333), wk =   0.0625000
        k(   21) = (   0.0000000  -0.1250000   0.3333333), wk =   0.0312500
        k(   22) = (   0.0000000  -0.2500000   0.3333333), wk =   0.0312500
        k(   23) = (   0.0000000  -0.3750000   0.3333333), wk =   0.0312500
        k(   24) = (  -0.1250000  -0.2500000   0.3333333), wk =   0.0625000
        k(   25) = (  -0.1250000  -0.3750000   0.3333333), wk =   0.0625000

     Dense  grid:    47419 G-vectors     FFT dimensions: (  40,  40,  75)

     Smooth grid:    16845 G-vectors     FFT dimensions: (  27,  27,  54)

     Dynamical RAM for                 wfc:       0.87 MB

     Dynamical RAM for     wfc (w. buffer):      44.21 MB

     Dynamical RAM for           str. fact:       2.17 MB

     Dynamical RAM for           local pot:       0.00 MB

     Dynamical RAM for          nlocal pot:       1.35 MB

     Dynamical RAM for                qrad:       5.27 MB

     Dynamical RAM for          rho,v,vnew:       9.83 MB

     Dynamical RAM for               rhoin:       3.28 MB

     Dynamical RAM for            rho*nmix:      23.15 MB

     Dynamical RAM for           G-vectors:       2.84 MB

     Dynamical RAM for          h,s,v(r/c):       0.13 MB

     Dynamical RAM for          <psi|beta>:       0.02 MB

     Dynamical RAM for                 psi:       1.73 MB

     Dynamical RAM for                hpsi:       1.73 MB

     Dynamical RAM for                spsi:       1.73 MB

     Dynamical RAM for      wfcinit/wfcrot:       1.75 MB

     Dynamical RAM for           addusdens:     136.75 MB

     Dynamical RAM for          addusforce:     138.21 MB

     Estimated static dynamical RAM per process >      77.34 MB

     Estimated max dynamical RAM per process >     238.71 MB

     Check: negative core charge=   -0.000009
     Generating pointlists ...
     new r_m :   0.2748 (alat units)  1.4998 (a.u.) for type    1
     new r_m :   0.2748 (alat units)  1.4998 (a.u.) for type    2
     new r_m :   0.2771 (alat units)  1.5123 (a.u.) for type    3

     Initial potential from superposition of free atoms

     starting charge      37.9934, renormalised to      38.0000
     Starting wfcs are   23 randomized atomic wfcs +    4 random wfcs
     Checking if some PAW data can be deallocated... 

     total cpu time spent up to now is        2.8 secs

     Self-consistent Calculation
[tb_dev] Currently allocated     6.54E-01 Mbytes, locked:    0 /   6
[tb_pin] Currently allocated     0.00E+00 Mbytes, locked:    0 /   0

     iteration #  1     ecut=    60.00 Ry     beta= 0.30
     Davidson diagonalization with overlap

---- Real-time Memory Report at c_bands before calling an iterative solver
           650 MiB given to the printing process from OS
             0 MiB allocation reported by mallinfo(arena+hblkhd)
        852555 MiB available memory on the node where the printing process lives
     GPU memory used/free/total (MiB): 924 / 80226 / 81151
------------------
     ethr =  1.00E-02,  avg # of iterations =  9.9

     total cpu time spent up to now is        4.9 secs

     total energy              =    -568.81635880 Ry
     estimated scf accuracy    <       1.43478579 Ry

     total magnetization       =     4.00 Bohr mag/cell
     absolute magnetization    =     4.00 Bohr mag/cell
[tb_dev] Currently allocated     3.05E-05 Mbytes, locked:    0 /   2
[tb_pin] Currently allocated     0.00E+00 Mbytes, locked:    0 /   0

     iteration #  2     ecut=    60.00 Ry     beta= 0.30
     Davidson diagonalization with overlap

---- Real-time Memory Report at c_bands before calling an iterative solver
           690 MiB given to the printing process from OS
             0 MiB allocation reported by mallinfo(arena+hblkhd)
        852410 MiB available memory on the node where the printing process lives
     GPU memory used/free/total (MiB): 936 / 80214 / 81151
------------------
     ethr =  3.78E-03,  avg # of iterations =  2.1

     total cpu time spent up to now is        5.9 secs

     total energy              =    -568.94706500 Ry
     estimated scf accuracy    <       2.00014032 Ry

     total magnetization       =     1.05 Bohr mag/cell
     absolute magnetization    =     1.38 Bohr mag/cell
[tb_dev] Currently allocated     3.05E-05 Mbytes, locked:    0 /   2
[tb_pin] Currently allocated     0.00E+00 Mbytes, locked:    0 /   0

     iteration #  3     ecut=    60.00 Ry     beta= 0.30
     Davidson diagonalization with overlap

---- Real-time Memory Report at c_bands before calling an iterative solver
           691 MiB given to the printing process from OS
             0 MiB allocation reported by mallinfo(arena+hblkhd)
        852400 MiB available memory on the node where the printing process lives
     GPU memory used/free/total (MiB): 936 / 80214 / 81151
------------------
     ethr =  3.78E-03,  avg # of iterations =  1.0

     total cpu time spent up to now is        6.9 secs

     total energy              =    -569.17082503 Ry
     estimated scf accuracy    <       0.17040463 Ry

     total magnetization       =     3.69 Bohr mag/cell
     absolute magnetization    =     3.69 Bohr mag/cell
[tb_dev] Currently allocated     3.05E-05 Mbytes, locked:    0 /   2
[tb_pin] Currently allocated     0.00E+00 Mbytes, locked:    0 /   0

     iteration #  4     ecut=    60.00 Ry     beta= 0.30
     Davidson diagonalization with overlap

---- Real-time Memory Report at c_bands before calling an iterative solver
           693 MiB given to the printing process from OS
             0 MiB allocation reported by mallinfo(arena+hblkhd)
        852387 MiB available memory on the node where the printing process lives
     GPU memory used/free/total (MiB): 936 / 80214 / 81151
------------------
     ethr =  4.48E-04,  avg # of iterations =  4.2

     total cpu time spent up to now is        8.3 secs

     total energy              =    -569.23268792 Ry
     estimated scf accuracy    <       0.15376872 Ry

     total magnetization       =     2.36 Bohr mag/cell
     absolute magnetization    =     2.37 Bohr mag/cell
[tb_dev] Currently allocated     3.05E-05 Mbytes, locked:    0 /   2
[tb_pin] Currently allocated     0.00E+00 Mbytes, locked:    0 /   0

     iteration #  5     ecut=    60.00 Ry     beta= 0.30
     Davidson diagonalization with overlap

---- Real-time Memory Report at c_bands before calling an iterative solver
           695 MiB given to the printing process from OS
             0 MiB allocation reported by mallinfo(arena+hblkhd)
        852378 MiB available memory on the node where the printing process lives
     GPU memory used/free/total (MiB): 936 / 80214 / 81151
------------------
     ethr =  4.05E-04,  avg # of iterations =  1.4

     total cpu time spent up to now is        9.3 secs

     total energy              =    -569.25137756 Ry
     estimated scf accuracy    <       0.11563575 Ry

     total magnetization       =     2.17 Bohr mag/cell
     absolute magnetization    =     2.20 Bohr mag/cell
[tb_dev] Currently allocated     3.05E-05 Mbytes, locked:    0 /   2
[tb_pin] Currently allocated     0.00E+00 Mbytes, locked:    0 /   0

     iteration #  6     ecut=    60.00 Ry     beta= 0.30
     Davidson diagonalization with overlap

---- Real-time Memory Report at c_bands before calling an iterative solver
           696 MiB given to the printing process from OS
             0 MiB allocation reported by mallinfo(arena+hblkhd)
        852386 MiB available memory on the node where the printing process lives
     GPU memory used/free/total (MiB): 936 / 80214 / 81151
------------------
     ethr =  3.04E-04,  avg # of iterations =  1.6

     total cpu time spent up to now is       10.3 secs

     total energy              =    -569.27893321 Ry
     estimated scf accuracy    <       0.07919911 Ry

     total magnetization       =     1.13 Bohr mag/cell
     absolute magnetization    =     1.31 Bohr mag/cell
[tb_dev] Currently allocated     3.05E-05 Mbytes, locked:    0 /   2
[tb_pin] Currently allocated     0.00E+00 Mbytes, locked:    0 /   0

     iteration #  7     ecut=    60.00 Ry     beta= 0.30
     Davidson diagonalization with overlap

---- Real-time Memory Report at c_bands before calling an iterative solver
           697 MiB given to the printing process from OS
             0 MiB allocation reported by mallinfo(arena+hblkhd)
        852381 MiB available memory on the node where the printing process lives
     GPU memory used/free/total (MiB): 936 / 80214 / 81151
------------------
     ethr =  2.08E-04,  avg # of iterations =  1.2

     total cpu time spent up to now is       11.3 secs

     total energy              =    -569.21036526 Ry
     estimated scf accuracy    <       0.09395065 Ry

     total magnetization       =     0.65 Bohr mag/cell
     absolute magnetization    =     0.95 Bohr mag/cell
[tb_dev] Currently allocated     3.05E-05 Mbytes, locked:    0 /   2
[tb_pin] Currently allocated     0.00E+00 Mbytes, locked:    0 /   0

     iteration #  8     ecut=    60.00 Ry     beta= 0.30
     Davidson diagonalization with overlap

---- Real-time Memory Report at c_bands before calling an iterative solver
           699 MiB given to the printing process from OS
             0 MiB allocation reported by mallinfo(arena+hblkhd)
        852364 MiB available memory on the node where the printing process lives
     GPU memory used/free/total (MiB): 936 / 80214 / 81151
------------------
     ethr =  2.08E-04,  avg # of iterations =  1.4

     negative rho (up, down):  0.000E+00 4.520E-05

     total cpu time spent up to now is       12.4 secs

     total energy              =    -569.13519256 Ry
     estimated scf accuracy    <       0.04645573 Ry

     total magnetization       =     2.44 Bohr mag/cell
     absolute magnetization    =     2.47 Bohr mag/cell
[tb_dev] Currently allocated     3.05E-05 Mbytes, locked:    0 /   2
[tb_pin] Currently allocated     0.00E+00 Mbytes, locked:    0 /   0

     iteration #  9     ecut=    60.00 Ry     beta= 0.30
     Davidson diagonalization with overlap

---- Real-time Memory Report at c_bands before calling an iterative solver
           700 MiB given to the printing process from OS
             0 MiB allocation reported by mallinfo(arena+hblkhd)
        852372 MiB available memory on the node where the printing process lives
     GPU memory used/free/total (MiB): 936 / 80214 / 81151
------------------
     ethr =  1.22E-04,  avg # of iterations =  2.5

     total cpu time spent up to now is       13.5 secs

     total energy              =    -569.14348849 Ry
     estimated scf accuracy    <       0.12001949 Ry

     total magnetization       =     3.89 Bohr mag/cell
     absolute magnetization    =     3.90 Bohr mag/cell
[tb_dev] Currently allocated     3.05E-05 Mbytes, locked:    0 /   2
[tb_pin] Currently allocated     0.00E+00 Mbytes, locked:    0 /   0

     iteration # 10     ecut=    60.00 Ry     beta= 0.30
     Davidson diagonalization with overlap

---- Real-time Memory Report at c_bands before calling an iterative solver
           701 MiB given to the printing process from OS
             0 MiB allocation reported by mallinfo(arena+hblkhd)
        852332 MiB available memory on the node where the printing process lives
     GPU memory used/free/total (MiB): 936 / 80214 / 81151
------------------
     ethr =  1.22E-04,  avg # of iterations =  3.9

     total cpu time spent up to now is       15.0 secs

     total energy              =    -569.32604962 Ry
     estimated scf accuracy    <       0.04537758 Ry

     total magnetization       =     0.08 Bohr mag/cell
     absolute magnetization    =     0.50 Bohr mag/cell
[tb_dev] Currently allocated     3.05E-05 Mbytes, locked:    0 /   2
[tb_pin] Currently allocated     0.00E+00 Mbytes, locked:    0 /   0

     iteration # 11     ecut=    60.00 Ry     beta= 0.30
     Davidson diagonalization with overlap

---- Real-time Memory Report at c_bands before calling an iterative solver
           701 MiB given to the printing process from OS
             0 MiB allocation reported by mallinfo(arena+hblkhd)
        852308 MiB available memory on the node where the printing process lives
     GPU memory used/free/total (MiB): 936 / 80214 / 81151
------------------
     ethr =  1.19E-04,  avg # of iterations =  1.5

     total cpu time spent up to now is       16.0 secs

     total energy              =    -569.32193492 Ry
     estimated scf accuracy    <       0.05495705 Ry

     total magnetization       =     0.02 Bohr mag/cell
     absolute magnetization    =     0.35 Bohr mag/cell
[tb_dev] Currently allocated     3.05E-05 Mbytes, locked:    0 /   2
[tb_pin] Currently allocated     0.00E+00 Mbytes, locked:    0 /   0

     iteration # 12     ecut=    60.00 Ry     beta= 0.30
     Davidson diagonalization with overlap

---- Real-time Memory Report at c_bands before calling an iterative solver
           701 MiB given to the printing process from OS
             0 MiB allocation reported by mallinfo(arena+hblkhd)
        852308 MiB available memory on the node where the printing process lives
     GPU memory used/free/total (MiB): 936 / 80214 / 81151
------------------
     ethr =  1.19E-04,  avg # of iterations =  2.3

     total cpu time spent up to now is       17.1 secs

     total energy              =    -569.31998304 Ry
     estimated scf accuracy    <       0.19579342 Ry

     total magnetization       =    -0.07 Bohr mag/cell
     absolute magnetization    =     0.19 Bohr mag/cell
[tb_dev] Currently allocated     3.05E-05 Mbytes, locked:    0 /   2
[tb_pin] Currently allocated     0.00E+00 Mbytes, locked:    0 /   0

     iteration # 13     ecut=    60.00 Ry     beta= 0.30
     Davidson diagonalization with overlap

---- Real-time Memory Report at c_bands before calling an iterative solver
           701 MiB given to the printing process from OS
             0 MiB allocation reported by mallinfo(arena+hblkhd)
        852278 MiB available memory on the node where the printing process lives
     GPU memory used/free/total (MiB): 936 / 80214 / 81151
------------------
     ethr =  1.19E-04,  avg # of iterations =  1.4
     Minimization algorithm failed to find Fermi energy: reverting to bisection
     Possible cause: smearing is larger than the electronic band-gap.

     total cpu time spent up to now is       18.1 secs

     total energy              =    -569.32957617 Ry
     estimated scf accuracy    <       0.01983518 Ry

     total magnetization       =     0.12 Bohr mag/cell
     absolute magnetization    =     0.27 Bohr mag/cell
[tb_dev] Currently allocated     3.05E-05 Mbytes, locked:    0 /   2
[tb_pin] Currently allocated     0.00E+00 Mbytes, locked:    0 /   0

     iteration # 14     ecut=    60.00 Ry     beta= 0.30
     Davidson diagonalization with overlap

---- Real-time Memory Report at c_bands before calling an iterative solver
           701 MiB given to the printing process from OS
             0 MiB allocation reported by mallinfo(arena+hblkhd)
        852272 MiB available memory on the node where the printing process lives
     GPU memory used/free/total (MiB): 936 / 80214 / 81151
------------------
     ethr =  5.22E-05,  avg # of iterations =  2.2
     Minimization algorithm failed to find Fermi energy: reverting to bisection
     Possible cause: smearing is larger than the electronic band-gap.

     total cpu time spent up to now is       19.2 secs

     total energy              =    -569.33026814 Ry
     estimated scf accuracy    <       0.00367138 Ry

     total magnetization       =     0.18 Bohr mag/cell
     absolute magnetization    =     0.30 Bohr mag/cell
[tb_dev] Currently allocated     3.05E-05 Mbytes, locked:    0 /   2
[tb_pin] Currently allocated     0.00E+00 Mbytes, locked:    0 /   0

     iteration # 15     ecut=    60.00 Ry     beta= 0.30
     Davidson diagonalization with overlap

---- Real-time Memory Report at c_bands before calling an iterative solver
           701 MiB given to the printing process from OS
             0 MiB allocation reported by mallinfo(arena+hblkhd)
        852257 MiB available memory on the node where the printing process lives
     GPU memory used/free/total (MiB): 936 / 80214 / 81151
------------------
     ethr =  9.66E-06,  avg # of iterations =  3.3
     Minimization algorithm failed to find Fermi energy: reverting to bisection
     Possible cause: smearing is larger than the electronic band-gap.

     total cpu time spent up to now is       20.4 secs

     total energy              =    -569.33144405 Ry
     estimated scf accuracy    <       0.00417074 Ry

     total magnetization       =     0.09 Bohr mag/cell
     absolute magnetization    =     0.27 Bohr mag/cell
[tb_dev] Currently allocated     3.05E-05 Mbytes, locked:    0 /   2
[tb_pin] Currently allocated     0.00E+00 Mbytes, locked:    0 /   0

     iteration # 16     ecut=    60.00 Ry     beta= 0.30
     Davidson diagonalization with overlap

---- Real-time Memory Report at c_bands before calling an iterative solver
           701 MiB given to the printing process from OS
             0 MiB allocation reported by mallinfo(arena+hblkhd)
        852265 MiB available memory on the node where the printing process lives
     GPU memory used/free/total (MiB): 936 / 80214 / 81151
------------------
     ethr =  9.66E-06,  avg # of iterations =  1.9

     total cpu time spent up to now is       21.5 secs

     WARNING: integrated charge=    37.99891960, expected=    38.00000000

     total energy              =    -569.32788184 Ry
     estimated scf accuracy    <       0.00559886 Ry

     total magnetization       =     0.00 Bohr mag/cell
     absolute magnetization    =     0.10 Bohr mag/cell
[tb_dev] Currently allocated     3.05E-05 Mbytes, locked:    0 /   2
[tb_pin] Currently allocated     0.00E+00 Mbytes, locked:    0 /   0

     iteration # 17     ecut=    60.00 Ry     beta= 0.30
     Davidson diagonalization with overlap

---- Real-time Memory Report at c_bands before calling an iterative solver
           701 MiB given to the printing process from OS
             0 MiB allocation reported by mallinfo(arena+hblkhd)
        852269 MiB available memory on the node where the printing process lives
     GPU memory used/free/total (MiB): 936 / 80214 / 81151
------------------
     ethr =  9.66E-06,  avg # of iterations =  1.6
     Minimization algorithm failed to find Fermi energy: reverting to bisection
     Possible cause: smearing is larger than the electronic band-gap.

     total cpu time spent up to now is       22.6 secs

     WARNING: integrated charge=    37.99788221, expected=    38.00000000

     total energy              =    -569.33122507 Ry
     estimated scf accuracy    <       0.00841151 Ry

     total magnetization       =    -0.07 Bohr mag/cell
     absolute magnetization    =     0.11 Bohr mag/cell
[tb_dev] Currently allocated     3.05E-05 Mbytes, locked:    0 /   2
[tb_pin] Currently allocated     0.00E+00 Mbytes, locked:    0 /   0

     iteration # 18     ecut=    60.00 Ry     beta= 0.30
     Davidson diagonalization with overlap

---- Real-time Memory Report at c_bands before calling an iterative solver
           701 MiB given to the printing process from OS
             0 MiB allocation reported by mallinfo(arena+hblkhd)
        852270 MiB available memory on the node where the printing process lives
     GPU memory used/free/total (MiB): 936 / 80214 / 81151
------------------
     ethr =  9.66E-06,  avg # of iterations =  1.5
     Minimization algorithm failed to find Fermi energy: reverting to bisection
     Possible cause: smearing is larger than the electronic band-gap.

     total cpu time spent up to now is       23.6 secs

     WARNING: integrated charge=    38.00431700, expected=    38.00000000

     total energy              =    -569.32915315 Ry
     estimated scf accuracy    <       0.01415068 Ry

     total magnetization       =    -0.10 Bohr mag/cell
     absolute magnetization    =     0.14 Bohr mag/cell
[tb_dev] Currently allocated     3.05E-05 Mbytes, locked:    0 /   2
[tb_pin] Currently allocated     0.00E+00 Mbytes, locked:    0 /   0

     iteration # 19     ecut=    60.00 Ry     beta= 0.30
     Davidson diagonalization with overlap

---- Real-time Memory Report at c_bands before calling an iterative solver
           701 MiB given to the printing process from OS
             0 MiB allocation reported by mallinfo(arena+hblkhd)
        852253 MiB available memory on the node where the printing process lives
     GPU memory used/free/total (MiB): 936 / 80214 / 81151
------------------
     ethr =  9.66E-06,  avg # of iterations =  1.7
     Minimization algorithm failed to find Fermi energy: reverting to bisection
     Possible cause: smearing is larger than the electronic band-gap.

     total cpu time spent up to now is       24.6 secs

     WARNING: integrated charge=    38.00643670, expected=    38.00000000

     total energy              =    -569.33262218 Ry
     estimated scf accuracy    <       0.00044408 Ry

     total magnetization       =     0.14 Bohr mag/cell
     absolute magnetization    =     0.20 Bohr mag/cell
[tb_dev] Currently allocated     3.05E-05 Mbytes, locked:    0 /   2
[tb_pin] Currently allocated     0.00E+00 Mbytes, locked:    0 /   0

     iteration # 20     ecut=    60.00 Ry     beta= 0.30
     Davidson diagonalization with overlap

---- Real-time Memory Report at c_bands before calling an iterative solver
           701 MiB given to the printing process from OS
             0 MiB allocation reported by mallinfo(arena+hblkhd)
        852253 MiB available memory on the node where the printing process lives
     GPU memory used/free/total (MiB): 936 / 80214 / 81151
------------------
     c_bands:  1 eigenvalues not converged
     ethr =  1.17E-06,  avg # of iterations =  5.4

     total cpu time spent up to now is       26.3 secs

     WARNING: integrated charge=    38.00481724, expected=    38.00000000

     total energy              =    -569.32737219 Ry
     estimated scf accuracy    <       0.00085882 Ry

     total magnetization       =    -0.00 Bohr mag/cell
     absolute magnetization    =     0.03 Bohr mag/cell
[tb_dev] Currently allocated     3.05E-05 Mbytes, locked:    0 /   2
[tb_pin] Currently allocated     0.00E+00 Mbytes, locked:    0 /   0

     iteration # 21     ecut=    60.00 Ry     beta= 0.30
     Davidson diagonalization with overlap

---- Real-time Memory Report at c_bands before calling an iterative solver
           702 MiB given to the printing process from OS
             0 MiB allocation reported by mallinfo(arena+hblkhd)
        852239 MiB available memory on the node where the printing process lives
     GPU memory used/free/total (MiB): 936 / 80214 / 81151
------------------
     ethr =  1.17E-06,  avg # of iterations =  1.3

     total cpu time spent up to now is       27.3 secs

     WARNING: integrated charge=    38.00159216, expected=    38.00000000

     total energy              =    -569.32785758 Ry
     estimated scf accuracy    <       0.00065790 Ry

     total magnetization       =    -0.00 Bohr mag/cell
     absolute magnetization    =     0.04 Bohr mag/cell
[tb_dev] Currently allocated     3.05E-05 Mbytes, locked:    0 /   2
[tb_pin] Currently allocated     0.00E+00 Mbytes, locked:    0 /   0

     iteration # 22     ecut=    60.00 Ry     beta= 0.30
     Davidson diagonalization with overlap

---- Real-time Memory Report at c_bands before calling an iterative solver
           702 MiB given to the printing process from OS
             0 MiB allocation reported by mallinfo(arena+hblkhd)
        852263 MiB available memory on the node where the printing process lives
     GPU memory used/free/total (MiB): 936 / 80214 / 81151
------------------
     ethr =  1.17E-06,  avg # of iterations =  1.1

     total cpu time spent up to now is       28.3 secs

     WARNING: integrated charge=    38.00014599, expected=    38.00000000

     total energy              =    -569.32918727 Ry
     estimated scf accuracy    <       0.00039478 Ry

     total magnetization       =    -0.00 Bohr mag/cell
     absolute magnetization    =     0.02 Bohr mag/cell
[tb_dev] Currently allocated     3.05E-05 Mbytes, locked:    0 /   2
[tb_pin] Currently allocated     0.00E+00 Mbytes, locked:    0 /   0

     iteration # 23     ecut=    60.00 Ry     beta= 0.30
     Davidson diagonalization with overlap

---- Real-time Memory Report at c_bands before calling an iterative solver
           702 MiB given to the printing process from OS
             0 MiB allocation reported by mallinfo(arena+hblkhd)
        852264 MiB available memory on the node where the printing process lives
     GPU memory used/free/total (MiB): 936 / 80214 / 81151
------------------
     ethr =  1.04E-06,  avg # of iterations =  1.1

     total cpu time spent up to now is       29.3 secs

     WARNING: integrated charge=    37.99964289, expected=    38.00000000

     total energy              =    -569.32952377 Ry
     estimated scf accuracy    <       0.00040509 Ry

     total magnetization       =    -0.00 Bohr mag/cell
     absolute magnetization    =     0.03 Bohr mag/cell
[tb_dev] Currently allocated     3.05E-05 Mbytes, locked:    0 /   2
[tb_pin] Currently allocated     0.00E+00 Mbytes, locked:    0 /   0

     iteration # 24     ecut=    60.00 Ry     beta= 0.30
     Davidson diagonalization with overlap

---- Real-time Memory Report at c_bands before calling an iterative solver
           702 MiB given to the printing process from OS
             0 MiB allocation reported by mallinfo(arena+hblkhd)
        852265 MiB available memory on the node where the printing process lives
     GPU memory used/free/total (MiB): 936 / 80214 / 81151
------------------
     ethr =  1.04E-06,  avg # of iterations =  1.0

     total cpu time spent up to now is       30.3 secs

     WARNING: integrated charge=    37.99754005, expected=    38.00000000

     total energy              =    -569.32970010 Ry
     estimated scf accuracy    <       0.00035427 Ry

     total magnetization       =    -0.00 Bohr mag/cell
     absolute magnetization    =     0.02 Bohr mag/cell
[tb_dev] Currently allocated     3.05E-05 Mbytes, locked:    0 /   2
[tb_pin] Currently allocated     0.00E+00 Mbytes, locked:    0 /   0

     iteration # 25     ecut=    60.00 Ry     beta= 0.30
     Davidson diagonalization with overlap

---- Real-time Memory Report at c_bands before calling an iterative solver
           702 MiB given to the printing process from OS
             0 MiB allocation reported by mallinfo(arena+hblkhd)
        852263 MiB available memory on the node where the printing process lives
     GPU memory used/free/total (MiB): 936 / 80214 / 81151
------------------
     ethr =  9.32E-07,  avg # of iterations =  1.0

     total cpu time spent up to now is       31.3 secs

     WARNING: integrated charge=    38.00197515, expected=    38.00000000

     total energy              =    -569.32994636 Ry
     estimated scf accuracy    <       0.00044222 Ry

     total magnetization       =    -0.00 Bohr mag/cell
     absolute magnetization    =     0.01 Bohr mag/cell
[tb_dev] Currently allocated     3.05E-05 Mbytes, locked:    0 /   2
[tb_pin] Currently allocated     0.00E+00 Mbytes, locked:    0 /   0

     iteration # 26     ecut=    60.00 Ry     beta= 0.30
     Davidson diagonalization with overlap

---- Real-time Memory Report at c_bands before calling an iterative solver
           702 MiB given to the printing process from OS
             0 MiB allocation reported by mallinfo(arena+hblkhd)
        852268 MiB available memory on the node where the printing process lives
     GPU memory used/free/total (MiB): 936 / 80214 / 81151
------------------
     ethr =  9.32E-07,  avg # of iterations =  1.0

     total cpu time spent up to now is       32.3 secs

     WARNING: integrated charge=    38.00474392, expected=    38.00000000

     total energy              =    -569.32936210 Ry
     estimated scf accuracy    <       0.00025687 Ry

     total magnetization       =    -0.00 Bohr mag/cell
     absolute magnetization    =     0.02 Bohr mag/cell
[tb_dev] Currently allocated     3.05E-05 Mbytes, locked:    0 /   2
[tb_pin] Currently allocated     0.00E+00 Mbytes, locked:    0 /   0

     iteration # 27     ecut=    60.00 Ry     beta= 0.30
     Davidson diagonalization with overlap

---- Real-time Memory Report at c_bands before calling an iterative solver
           702 MiB given to the printing process from OS
             0 MiB allocation reported by mallinfo(arena+hblkhd)
        852270 MiB available memory on the node where the printing process lives
     GPU memory used/free/total (MiB): 936 / 80214 / 81151
------------------
     ethr =  6.76E-07,  avg # of iterations =  1.0

     total cpu time spent up to now is       33.3 secs

     WARNING: integrated charge=    38.00609886, expected=    38.00000000

     total energy              =    -569.32926179 Ry
     estimated scf accuracy    <       0.00008485 Ry

     total magnetization       =    -0.00 Bohr mag/cell
     absolute magnetization    =     0.01 Bohr mag/cell
[tb_dev] Currently allocated     3.05E-05 Mbytes, locked:    0 /   2
[tb_pin] Currently allocated     0.00E+00 Mbytes, locked:    0 /   0

     iteration # 28     ecut=    60.00 Ry     beta= 0.30
     Davidson diagonalization with overlap

---- Real-time Memory Report at c_bands before calling an iterative solver
           702 MiB given to the printing process from OS
             0 MiB allocation reported by mallinfo(arena+hblkhd)
        852263 MiB available memory on the node where the printing process lives
     GPU memory used/free/total (MiB): 936 / 80214 / 81151
------------------
     ethr =  2.23E-07,  avg # of iterations =  1.6

     total cpu time spent up to now is       34.3 secs

     WARNING: integrated charge=    38.00800358, expected=    38.00000000

     total energy              =    -569.32921580 Ry
     estimated scf accuracy    <       0.00002165 Ry

     total magnetization       =    -0.00 Bohr mag/cell
     absolute magnetization    =     0.00 Bohr mag/cell
[tb_dev] Currently allocated     3.05E-05 Mbytes, locked:    0 /   2
[tb_pin] Currently allocated     0.00E+00 Mbytes, locked:    0 /   0

     iteration # 29     ecut=    60.00 Ry     beta= 0.30
     Davidson diagonalization with overlap

---- Real-time Memory Report at c_bands before calling an iterative solver
           702 MiB given to the printing process from OS
             0 MiB allocation reported by mallinfo(arena+hblkhd)
        852269 MiB available memory on the node where the printing process lives
     GPU memory used/free/total (MiB): 936 / 80214 / 81151
------------------
     ethr =  5.70E-08,  avg # of iterations =  4.4

     total cpu time spent up to now is       35.6 secs

     WARNING: integrated charge=    38.00820905, expected=    38.00000000

     total energy              =    -569.32905500 Ry
     estimated scf accuracy    <       0.00000069 Ry

     total magnetization       =    -0.00 Bohr mag/cell
     absolute magnetization    =     0.00 Bohr mag/cell
[tb_dev] Currently allocated     3.05E-05 Mbytes, locked:    0 /   2
[tb_pin] Currently allocated     0.00E+00 Mbytes, locked:    0 /   0

     iteration # 30     ecut=    60.00 Ry     beta= 0.30
     Davidson diagonalization with overlap

---- Real-time Memory Report at c_bands before calling an iterative solver
           702 MiB given to the printing process from OS
             0 MiB allocation reported by mallinfo(arena+hblkhd)
        852273 MiB available memory on the node where the printing process lives
     GPU memory used/free/total (MiB): 936 / 80214 / 81151
------------------
     ethr =  1.80E-09,  avg # of iterations = 11.0

     total cpu time spent up to now is       37.8 secs

     WARNING: integrated charge=    38.00802751, expected=    38.00000000

     total energy              =    -569.32905395 Ry
     estimated scf accuracy    <       0.00000033 Ry

     total magnetization       =    -0.00 Bohr mag/cell
     absolute magnetization    =     0.00 Bohr mag/cell
[tb_dev] Currently allocated     3.05E-05 Mbytes, locked:    0 /   2
[tb_pin] Currently allocated     0.00E+00 Mbytes, locked:    0 /   0

     iteration # 31     ecut=    60.00 Ry     beta= 0.30
     Davidson diagonalization with overlap

---- Real-time Memory Report at c_bands before calling an iterative solver
           702 MiB given to the printing process from OS
             0 MiB allocation reported by mallinfo(arena+hblkhd)
        852279 MiB available memory on the node where the printing process lives
     GPU memory used/free/total (MiB): 936 / 80214 / 81151
------------------
     ethr =  8.67E-10,  avg # of iterations =  2.0

     total cpu time spent up to now is       38.9 secs

     WARNING: integrated charge=    38.00810336, expected=    38.00000000

     total energy              =    -569.32908233 Ry
     estimated scf accuracy    <       0.00000009 Ry

     total magnetization       =    -0.00 Bohr mag/cell
     absolute magnetization    =     0.00 Bohr mag/cell
[tb_dev] Currently allocated     3.05E-05 Mbytes, locked:    0 /   2
[tb_pin] Currently allocated     0.00E+00 Mbytes, locked:    0 /   0

     iteration # 32     ecut=    60.00 Ry     beta= 0.30
     Davidson diagonalization with overlap

---- Real-time Memory Report at c_bands before calling an iterative solver
           702 MiB given to the printing process from OS
             0 MiB allocation reported by mallinfo(arena+hblkhd)
        852279 MiB available memory on the node where the printing process lives
     GPU memory used/free/total (MiB): 936 / 80214 / 81151
------------------
     ethr =  2.31E-10,  avg # of iterations =  3.7

     total cpu time spent up to now is       40.2 secs

     WARNING: integrated charge=    38.00813698, expected=    38.00000000

     total energy              =    -569.32907784 Ry
     estimated scf accuracy    <       0.00000003 Ry

     total magnetization       =     0.00 Bohr mag/cell
     absolute magnetization    =     0.00 Bohr mag/cell
[tb_dev] Currently allocated     3.05E-05 Mbytes, locked:    0 /   2
[tb_pin] Currently allocated     0.00E+00 Mbytes, locked:    0 /   0

     iteration # 33     ecut=    60.00 Ry     beta= 0.30
     Davidson diagonalization with overlap

---- Real-time Memory Report at c_bands before calling an iterative solver
           702 MiB given to the printing process from OS
             0 MiB allocation reported by mallinfo(arena+hblkhd)
        852273 MiB available memory on the node where the printing process lives
     GPU memory used/free/total (MiB): 936 / 80214 / 81151
------------------
     ethr =  7.93E-11,  avg # of iterations =  4.6
 
     Magnetic moment per site  (integrated on atomic sphere of radius R)
     atom   1 (R=0.275)  charge= 14.1666  magn=  0.0000
     atom   2 (R=0.275)  charge=  5.3227  magn=  0.0000
     atom   3 (R=0.275)  charge=  5.3217  magn=  0.0000
     atom   4 (R=0.277)  charge=  7.7189  magn= -0.0000

     total cpu time spent up to now is       41.6 secs

     End of self-consistent calculation

 ------ SPIN UP ------------


          k = 0.0000 0.0000 0.0000 (  2113 PWs)   bands (ev):

   -84.7286 -48.0291 -48.0291 -47.8818 -41.8048 -13.7690 -13.6498 -13.6498
    -9.7148  -7.7238   3.6111   4.9794   4.9794   7.6278   8.1157   8.1157
     9.2065   9.2065  10.2181  12.4440  12.5579  12.5579  18.0191  19.8862
    25.3080  27.0473  27.0473

     occupation numbers 
     1.0000   1.0000   1.0000   1.0000   1.0000   1.0000   1.0000   1.0000
     1.0000   1.0000   1.0000   1.0000   1.0000   1.0000   1.0000   1.0000
     1.0000   1.0000   1.0014   0.0000   0.0000   0.0000   0.0000   0.0000
     0.0000   0.0000   0.0000

          k = 0.0000 0.0000 0.1750 (  2114 PWs)   bands (ev):

   -84.7286 -48.0292 -48.0292 -47.8816 -41.8047 -13.7895 -13.6501 -13.6501
    -9.5532  -7.9015   4.0031   4.9745   4.9745   6.8395   8.1266   8.1266
     9.2061   9.2061  10.3191  12.5512  12.5512  13.2772  17.2472  19.8743
    25.5788  27.4087  27.4088

     occupation numbers 
     1.0000   1.0000   1.0000   1.0000   1.0000   1.0000   1.0000   1.0000
     1.0000   1.0000   1.0000   1.0000   1.0000   1.0000   1.0000   1.0000
     1.0000   1.0000   1.0063   0.0000   0.0000   0.0000   0.0000   0.0000
     0.0000   0.0000   0.0000

          k = 0.0000 0.1443 0.0000 (  2123 PWs)   bands (ev):

   -84.7278 -48.0378 -48.0313 -47.8805 -41.7994 -13.7557 -13.6980 -13.6600
    -9.5391  -7.7254   3.8447   4.7136   5.0733   7.0979   7.6666   7.9070
     9.4226   9.5697  10.2465  12.0838  12.4601  13.0544  18.6315  20.3080
    24.8612  25.4207  27.4082

     occupation numbers 
     1.0000   1.0000   1.0000   1.0000   1.0000   1.0000   1.0000   1.0000
     1.0000   1.0000   1.0000   1.0000   1.0000   1.0000   1.0000   1.0000
     1.0000   1.0000   1.0022   0.0000   0.0000   0.0000   0.0000   0.0000
     0.0000   0.0000   0.0000

          k = 0.0000 0.1443 0.1750 (  2102 PWs)   bands (ev):

   -84.7278 -48.0377 -48.0312 -47.8802 -41.7993 -13.7726 -13.6976 -13.6597
    -9.3933  -7.8830   4.1620   4.6390   5.0701   7.1421   7.3538   7.6723
     9.4118   9.5700  10.3781  11.8758  12.4567  13.8652  17.8305  20.5435
    24.8028  25.9532  26.5863

     occupation numbers 
     1.0000   1.0000   1.0000   1.0000   1.0000   1.0000   1.0000   1.0000
     1.0000   1.0000   1.0000   1.0000   1.0000   1.0000   1.0000   1.0000
     1.0000   1.0000   1.0133   0.0000   0.0000   0.0000   0.0000   0.0000
     0.0000   0.0000   0.0000

          k = 0.0000 0.2887 0.0000 (  2112 PWs)   bands (ev):

   -84.7260 -48.0586 -48.0363 -47.8772 -41.7864 -13.8174 -13.7167 -13.6836
    -9.0801  -7.7415   4.2495   4.4726   5.2944   5.5952   7.0631   7.9652
     9.5129   9.8779  10.2339  11.5872  12.3420  14.2446  19.6142  21.1287
    22.4008  24.7371  26.1128

     occupation numbers 
     1.0000   1.0000   1.0000   1.0000   1.0000   1.0000   1.0000   1.0000
     1.0000   1.0000   1.0000   1.0000   1.0000   1.0000   1.0000   1.0000
     1.0000   1.0000   1.0018   0.0003   0.0000   0.0000   0.0000   0.0000
     0.0000   0.0000   0.0000

          k = 0.0000 0.2887 0.1750 (  2100 PWs)   bands (ev):

   -84.7259 -48.0585 -48.0362 -47.8771 -41.7864 -13.8173 -13.7259 -13.6834
    -8.9776  -7.8454   4.0607   4.6711   5.2951   5.7293   7.0618   7.8425
     9.4779   9.8770  10.3246  11.2469  12.3435  14.7655  19.0123  21.4492
    22.6432  24.5696  25.5251

     occupation numbers 
     1.0000   1.0000   1.0000   1.0000   1.0000   1.0000   1.0000   1.0000
     1.0000   1.0000   1.0000   1.0000   1.0000   1.0000   1.0000   1.0000
     1.0000   1.0000   1.0068   0.0640   0.0000   0.0000   0.0000   0.0000
     0.0000   0.0000   0.0000

          k = 0.0000 0.4330 0.0000 (  2098 PWs)   bands (ev):

   -84.7241 -48.0793 -48.0411 -47.8739 -41.7734 -13.9284 -13.7070 -13.6821
    -8.5334  -7.8046   3.6669   4.5800   5.4710   5.5195   6.7416   7.2883
     9.4393   9.8153  10.0891  11.7958  12.3853  15.5930  19.4268  20.3260
    22.1316  24.0643  25.3961

     occupation numbers 
     1.0000   1.0000   1.0000   1.0000   1.0000   1.0000   1.0000   1.0000
     1.0000   1.0000   1.0000   1.0000   1.0000   1.0000   1.0000   1.0000
     1.0000   1.0000   1.0001   0.0000   0.0000   0.0000   0.0000   0.0000
     0.0000   0.0000   0.0000

          k = 0.0000 0.4330 0.1750 (  2109 PWs)   bands (ev):

   -84.7241 -48.0794 -48.0412 -47.8740 -41.7734 -13.9280 -13.7070 -13.6866
    -8.4909  -7.8396   3.5646   4.4973   5.4785   5.6783   6.7307   7.4353
     9.4207   9.8148  10.0981  11.6109  12.3894  15.6839  19.0368  20.5242
    22.7288  23.9977  25.5037

     occupation numbers 
     1.0000   1.0000   1.0000   1.0000   1.0000   1.0000   1.0000   1.0000
     1.0000   1.0000   1.0000   1.0000   1.0000   1.0000   1.0000   1.0000
     1.0000   1.0000   1.0002   0.0002   0.0000   0.0000   0.0000   0.0000
     0.0000   0.0000   0.0000

          k = 0.0000-0.5774 0.0000 (  2102 PWs)   bands (ev):

   -84.7233 -48.0880 -48.0431 -47.8726 -41.7680 -13.9739 -13.7166 -13.6677
    -8.2202  -7.9021   3.2438   4.6351   5.5095   5.9280   6.6887   6.7908
     9.3302   9.7159  10.0088  12.0052  12.4382  16.6372  18.1711  20.2585
    22.0636  24.0637  25.3174

     occupation numbers 
     1.0000   1.0000   1.0000   1.0000   1.0000   1.0000   1.0000   1.0000
     1.0000   1.0000   1.0000   1.0000   1.0000   1.0000   1.0000   1.0000
     1.0000   1.0000   1.0000   0.0000   0.0000   0.0000   0.0000   0.0000
     0.0000   0.0000   0.0000

          k = 0.0000-0.5774 0.1750 (  2116 PWs)   bands (ev):

   -84.7234 -48.0880 -48.0434 -47.8727 -41.7681 -13.9733 -13.7170 -13.6706
    -8.2120  -7.9009   3.1766   4.5473   5.5174   5.9346   6.6769   7.0314
     9.3190   9.7159   9.9997  12.0102  12.4413  16.1953  18.0411  21.1235
    22.2223  24.2384  25.3932

     occupation numbers 
     1.0000   1.0000   1.0000   1.0000   1.0000   1.0000   1.0000   1.0000
     1.0000   1.0000   1.0000   1.0000   1.0000   1.0000   1.0000   1.0000
     1.0000   1.0000   1.0000   0.0000   0.0000   0.0000   0.0000   0.0000
     0.0000   0.0000   0.0000

          k = 0.1250 0.2165 0.0000 (  2101 PWs)   bands (ev):

   -84.7265 -48.0515 -48.0356 -47.8781 -41.7902 -13.7795 -13.7259 -13.6817
    -9.2218  -7.7332   4.2448   4.4523   5.1731   6.0935   6.9910   8.0662
     9.5682   9.8685  10.2398  11.8110  12.1010  13.9498  19.4382  21.0032
    23.0621  24.9986  26.4168

     occupation numbers 
     1.0000   1.0000   1.0000   1.0000   1.0000   1.0000   1.0000   1.0000
     1.0000   1.0000   1.0000   1.0000   1.0000   1.0000   1.0000   1.0000
     1.0000   1.0000   1.0020   0.0000   0.0000   0.0000   0.0000   0.0000
     0.0000   0.0000   0.0000

          k = 0.1250 0.2165 0.1750 (  2101 PWs)   bands (ev):

   -84.7265 -48.0515 -48.0357 -47.8780 -41.7902 -13.7811 -13.7360 -13.6818
    -9.1007  -7.8596   4.2056   4.5873   5.1799   6.1787   6.9965   7.8029
     9.5682   9.8109  10.3282  11.5358  12.2107  14.3893  18.8587  21.4968
    23.1353  25.1164  25.3304

     occupation numbers 
     1.0000   1.0000   1.0000   1.0000   1.0000   1.0000   1.0000   1.0000
     1.0000   1.0000   1.0000   1.0000   1.0000   1.0000   1.0000   1.0000
     1.0000   1.0000   1.0071   0.0008   0.0000   0.0000   0.0000   0.0000
     0.0000   0.0000   0.0000

          k = 0.1250 0.3608 0.0000 (  2106 PWs)   bands (ev):

   -84.7246 -48.0701 -48.0428 -47.8749 -41.7772 -13.8788 -13.7182 -13.6921
    -8.7197  -7.7652   4.1328   4.5445   5.2491   5.4766   6.4590   7.6608
     9.5968   9.9700  10.1342  11.7214  12.0651  15.1560  19.9458  21.0444
    22.1577  23.9852  25.5840

     occupation numbers 
     1.0000   1.0000   1.0000   1.0000   1.0000   1.0000   1.0000   1.0000
     1.0000   1.0000   1.0000   1.0000   1.0000   1.0000   1.0000   1.0000
     1.0000   1.0000   1.0003   0.0000   0.0000   0.0000   0.0000   0.0000
     0.0000   0.0000   0.0000

          k = 0.1250 0.3608 0.1750 (  2102 PWs)   bands (ev):

   -84.7246 -48.0702 -48.0427 -47.8749 -41.7772 -13.8784 -13.7183 -13.6977
    -8.6479  -7.8331   3.9690   4.5162   5.3934   5.5895   6.4617   7.6804
     9.5893   9.9407  10.1375  11.5104  12.1299  15.2991  19.8093  20.7831
    23.0159  23.9195  25.1401

     occupation numbers 
     1.0000   1.0000   1.0000   1.0000   1.0000   1.0000   1.0000   1.0000
     1.0000   1.0000   1.0000   1.0000   1.0000   1.0000   1.0000   1.0000
     1.0000   1.0000   1.0003   0.0013   0.0000   0.0000   0.0000   0.0000
     0.0000   0.0000   0.0000

          k = 0.1250 0.5052 0.0000 (  2104 PWs)   bands (ev):

   -84.7233 -48.0833 -48.0479 -47.8726 -41.7681 -13.9475 -13.7437 -13.6677
    -8.2776  -7.8452   3.5344   4.5166   5.5096   5.8177   6.2740   6.9479
     9.4850   9.7857  10.0887  11.9238  12.1769  16.4255  18.7480  20.7308
    22.3990  23.8143  25.1396

     occupation numbers 
     1.0000   1.0000   1.0000   1.0000   1.0000   1.0000   1.0000   1.0000
     1.0000   1.0000   1.0000   1.0000   1.0000   1.0000   1.0000   1.0000
     1.0000   1.0000   1.0001   0.0000   0.0000   0.0000   0.0000   0.0000
     0.0000   0.0000   0.0000

          k = 0.1250 0.5052 0.1750 (  2107 PWs)   bands (ev):

   -84.7233 -48.0833 -48.0479 -47.8727 -41.7681 -13.9470 -13.7436 -13.6707
    -8.2627  -7.8512   3.4660   4.4352   5.5068   5.8663   6.2842   7.1137
     9.4717   9.7912  10.0711  11.8949  12.2132  16.2611  18.4868  21.2113
    22.7005  24.0159  25.1697

     occupation numbers 
     1.0000   1.0000   1.0000   1.0000   1.0000   1.0000   1.0000   1.0000
     1.0000   1.0000   1.0000   1.0000   1.0000   1.0000   1.0000   1.0000
     1.0000   1.0000   1.0001   0.0000   0.0000   0.0000   0.0000   0.0000
     0.0000   0.0000   0.0000

          k = 0.2500 0.4330 0.0000 (  2095 PWs)   bands (ev):

   -84.7233 -48.0767 -48.0543 -47.8726 -41.7680 -13.9111 -13.7804 -13.6677
    -8.3228  -7.8005   4.0715   4.2973   5.1872   5.7731   6.0335   7.0912
     9.5974   9.8337  10.2076  11.7746  11.9740  16.2906  19.2507  21.4494
    22.6632  23.3712  25.0846

     occupation numbers 
     1.0000   1.0000   1.0000   1.0000   1.0000   1.0000   1.0000   1.0000
     1.0000   1.0000   1.0000   1.0000   1.0000   1.0000   1.0000   1.0000
     1.0000   1.0000   1.0012   0.0000   0.0000   0.0000   0.0000   0.0000
     0.0000   0.0000   0.0000

          k = 0.2500 0.4330 0.1750 (  2101 PWs)   bands (ev):

   -84.7233 -48.0767 -48.0543 -47.8727 -41.7680 -13.9107 -13.7803 -13.6711
    -8.2860  -7.8301   3.9997   4.2124   5.1881   5.9097   6.0623   7.1129
     9.6037   9.8397  10.1517  11.8603  11.9767  16.0996  19.2162  21.6683
    22.9651  23.6654  24.6504

     occupation numbers 
     1.0000   1.0000   1.0000   1.0000   1.0000   1.0000   1.0000   1.0000
     1.0000   1.0000   1.0000   1.0000   1.0000   1.0000   1.0000   1.0000
     1.0000   1.0000   1.0004   0.0000   0.0000   0.0000   0.0000   0.0000
     0.0000   0.0000   0.0000

          k = 0.2500 0.5774 0.0000 (  2102 PWs)   bands (ev):

   -84.7228 -48.0773 -48.0614 -47.8717 -41.7642 -13.9118 -13.8188 -13.6578
    -8.1363  -7.8283   3.9284   4.3826   4.9226   5.9621   6.2554   6.5820
     9.4235   9.9707  10.1612  11.8545  11.9191  17.0622  18.5357  21.6813
    22.5932  23.7631  24.9321

     occupation numbers 
     1.0000   1.0000   1.0000   1.0000   1.0000   1.0000   1.0000   1.0000
     1.0000   1.0000   1.0000   1.0000   1.0000   1.0000   1.0000   1.0000
     1.0000   1.0000   1.0005   0.0000   0.0000   0.0000   0.0000   0.0000
     0.0000   0.0000   0.0000

          k = 0.2500 0.5774 0.1750 (  2105 PWs)   bands (ev):

   -84.7228 -48.0772 -48.0614 -47.8718 -41.7643 -13.9114 -13.8188 -13.6599
    -8.1330  -7.8232   3.8686   4.3320   4.9081   5.9824   6.2872   6.6496
     9.4330   9.9711  10.1306  11.9298  11.9895  16.8966  18.3529  22.2180
    22.8123  23.6510  24.5314

     occupation numbers 
     1.0000   1.0000   1.0000   1.0000   1.0000   1.0000   1.0000   1.0000
     1.0000   1.0000   1.0000   1.0000   1.0000   1.0000   1.0000   1.0000
     1.0000   1.0000   1.0003   0.0000   0.0000   0.0000   0.0000   0.0000
     0.0000   0.0000   0.0000

          k = 0.0000-0.1443 0.1750 (  2102 PWs)   bands (ev):

   -84.7278 -48.0378 -48.0312 -47.8802 -41.7993 -13.7728 -13.6976 -13.6597
    -9.3912  -7.8854   4.1745   4.6384   5.0673   7.0413   7.4468   7.6769
     9.3959   9.5719  10.3584  11.9950  12.4532  13.7234  17.9076  20.5361
    24.8092  25.8304  26.8452

     occupation numbers 
     1.0000   1.0000   1.0000   1.0000   1.0000   1.0000   1.0000   1.0000
     1.0000   1.0000   1.0000   1.0000   1.0000   1.0000   1.0000   1.0000
     1.0000   1.0000   1.0105   0.0000   0.0000   0.0000   0.0000   0.0000
     0.0000   0.0000   0.0000

          k = 0.0000-0.2887 0.1750 (  2100 PWs)   bands (ev):

   -84.7259 -48.0585 -48.0362 -47.8771 -41.7864 -13.8176 -13.7262 -13.6834
    -8.9640  -7.8611   4.1185   4.6240   5.2885   5.7602   7.0714   7.7572
     9.4647   9.8791  10.2446  11.5567  12.3380  14.3822  19.3585  21.6043
    22.5315  24.6154  25.5352

     occupation numbers 
     1.0000   1.0000   1.0000   1.0000   1.0000   1.0000   1.0000   1.0000
     1.0000   1.0000   1.0000   1.0000   1.0000   1.0000   1.0000   1.0000
     1.0000   1.0000   1.0021   0.0005   0.0000   0.0000   0.0000   0.0000
     0.0000   0.0000   0.0000

          k = 0.0000-0.4330 0.1750 (  2109 PWs)   bands (ev):

   -84.7241 -48.0794 -48.0412 -47.8741 -41.7734 -13.9282 -13.7070 -13.6872
    -8.4596  -7.8738   3.5728   4.4944   5.4709   5.7835   6.7413   7.2716
     9.4215   9.8150  10.0635  11.8393  12.3856  15.2265  19.4176  21.0571
    22.2725  24.4271  24.9735

     occupation numbers 
     1.0000   1.0000   1.0000   1.0000   1.0000   1.0000   1.0000   1.0000
     1.0000   1.0000   1.0000   1.0000   1.0000   1.0000   1.0000   1.0000
     1.0000   1.0000   1.0001   0.0000   0.0000   0.0000   0.0000   0.0000
     0.0000   0.0000   0.0000

          k =-0.1250-0.3608 0.1750 (  2102 PWs)   bands (ev):

   -84.7246 -48.0702 -48.0427 -47.8749 -41.7772 -13.8786 -13.7182 -13.6981
    -8.6340  -7.8486   3.9897   4.4988   5.3743   5.6490   6.4665   7.5984
     9.6014   9.9511  10.0818  11.7162  12.0730  15.0642  20.0517  21.0059
    22.8552  24.0699  24.8171

     occupation numbers 
     1.0000   1.0000   1.0000   1.0000   1.0000   1.0000   1.0000   1.0000
     1.0000   1.0000   1.0000   1.0000   1.0000   1.0000   1.0000   1.0000
     1.0000   1.0000   1.0001   0.0000   0.0000   0.0000   0.0000   0.0000
     0.0000   0.0000   0.0000

          k =-0.1250-0.5052 0.1750 (  2107 PWs)   bands (ev):

   -84.7233 -48.0833 -48.0479 -47.8727 -41.7681 -13.9471 -13.7436 -13.6709
    -8.2415  -7.8736   3.4636   4.4438   5.5041   5.9127   6.3062   7.0217
     9.4835   9.7878  10.0539  11.9961  12.1865  16.0235  18.6915  21.6569
    22.3608  24.0167  24.9764

     occupation numbers 
     1.0000   1.0000   1.0000   1.0000   1.0000   1.0000   1.0000   1.0000
     1.0000   1.0000   1.0000   1.0000   1.0000   1.0000   1.0000   1.0000
     1.0000   1.0000   1.0001   0.0000   0.0000   0.0000   0.0000   0.0000
     0.0000   0.0000   0.0000

 ------ SPIN DOWN ----------


          k = 0.0000 0.0000 0.0000 (  2113 PWs)   bands (ev):

   -84.7286 -48.0294 -48.0294 -47.8814 -41.8048 -13.7690 -13.6498 -13.6498
    -9.7148  -7.7238   3.6110   4.9794   4.9794   7.6276   8.1159   8.1159
     9.2068   9.2068  10.2178  12.4440  12.5579  12.5579  18.0190  19.8861
    25.3079  27.0473  27.0473

     occupation numbers 
     1.0000   1.0000   1.0000   1.0000   1.0000   1.0000   1.0000   1.0000
     1.0000   1.0000   1.0000   1.0000   1.0000   1.0000   1.0000   1.0000
     1.0000   1.0000   1.0014   0.0000   0.0000   0.0000   0.0000   0.0000
     0.0000   0.0000   0.0000

          k = 0.0000 0.0000 0.1750 (  2114 PWs)   bands (ev):

   -84.7286 -48.0295 -48.0295 -47.8812 -41.8048 -13.7895 -13.6501 -13.6501
    -9.5532  -7.9015   4.0029   4.9744   4.9744   6.8394   8.1267   8.1267
     9.2064   9.2064  10.3187  12.5512  12.5512  13.2771  17.2471  19.8742
    25.5786  27.4087  27.4087

     occupation numbers 
     1.0000   1.0000   1.0000   1.0000   1.0000   1.0000   1.0000   1.0000
     1.0000   1.0000   1.0000   1.0000   1.0000   1.0000   1.0000   1.0000
     1.0000   1.0000   1.0063   0.0000   0.0000   0.0000   0.0000   0.0000
     0.0000   0.0000   0.0000

          k = 0.0000 0.1443 0.0000 (  2123 PWs)   bands (ev):

   -84.7279 -48.0381 -48.0316 -47.8801 -41.7995 -13.7557 -13.6980 -13.6600
    -9.5391  -7.7253   3.8445   4.7135   5.0733   7.0980   7.6667   7.9069
     9.4228   9.5699  10.2461  12.0837  12.4601  13.0544  18.6313  20.3079
    24.8611  25.4205  27.4082

     occupation numbers 
     1.0000   1.0000   1.0000   1.0000   1.0000   1.0000   1.0000   1.0000
     1.0000   1.0000   1.0000   1.0000   1.0000   1.0000   1.0000   1.0000
     1.0000   1.0000   1.0022   0.0000   0.0000   0.0000   0.0000   0.0000
     0.0000   0.0000   0.0000

          k = 0.0000 0.1443 0.1750 (  2102 PWs)   bands (ev):

   -84.7278 -48.0380 -48.0315 -47.8799 -41.7994 -13.7726 -13.6976 -13.6597
    -9.3932  -7.8829   4.1618   4.6389   5.0701   7.1422   7.3538   7.6724
     9.4120   9.5702  10.3778  11.8757  12.4567  13.8652  17.8304  20.5434
    24.8027  25.9530  26.5863

     occupation numbers 
     1.0000   1.0000   1.0000   1.0000   1.0000   1.0000   1.0000   1.0000
     1.0000   1.0000   1.0000   1.0000   1.0000   1.0000   1.0000   1.0000
     1.0000   1.0000   1.0132   0.0000   0.0000   0.0000   0.0000   0.0000
     0.0000   0.0000   0.0000

          k = 0.0000 0.2887 0.0000 (  2112 PWs)   bands (ev):

   -84.7260 -48.0588 -48.0366 -47.8768 -41.7865 -13.8174 -13.7167 -13.6836
    -9.0801  -7.7415   4.2494   4.4725   5.2945   5.5953   7.0633   7.9651
     9.5131   9.8779  10.2337  11.5871  12.3422  14.2446  19.6141  21.1286
    22.4007  24.7370  26.1127

     occupation numbers 
     1.0000   1.0000   1.0000   1.0000   1.0000   1.0000   1.0000   1.0000
     1.0000   1.0000   1.0000   1.0000   1.0000   1.0000   1.0000   1.0000
     1.0000   1.0000   1.0018   0.0003   0.0000   0.0000   0.0000   0.0000
     0.0000   0.0000   0.0000

          k = 0.0000 0.2887 0.1750 (  2100 PWs)   bands (ev):

   -84.7260 -48.0588 -48.0365 -47.8767 -41.7864 -13.8173 -13.7259 -13.6834
    -8.9776  -7.8454   4.0606   4.6710   5.2951   5.7294   7.0619   7.8424
     9.4780   9.8771  10.3243  11.2469  12.3437  14.7654  19.0122  21.4491
    22.6431  24.5695  25.5249

     occupation numbers 
     1.0000   1.0000   1.0000   1.0000   1.0000   1.0000   1.0000   1.0000
     1.0000   1.0000   1.0000   1.0000   1.0000   1.0000   1.0000   1.0000
     1.0000   1.0000   1.0068   0.0640   0.0000   0.0000   0.0000   0.0000
     0.0000   0.0000   0.0000

          k = 0.0000 0.4330 0.0000 (  2098 PWs)   bands (ev):

   -84.7241 -48.0796 -48.0414 -47.8735 -41.7734 -13.9284 -13.7070 -13.6821
    -8.5334  -7.8046   3.6670   4.5800   5.4712   5.5194   6.7417   7.2882
     9.4393   9.8152  10.0890  11.7957  12.3856  15.5929  19.4267  20.3259
    22.1315  24.0643  25.3960

     occupation numbers 
     1.0000   1.0000   1.0000   1.0000   1.0000   1.0000   1.0000   1.0000
     1.0000   1.0000   1.0000   1.0000   1.0000   1.0000   1.0000   1.0000
     1.0000   1.0000   1.0001   0.0000   0.0000   0.0000   0.0000   0.0000
     0.0000   0.0000   0.0000

          k = 0.0000 0.4330 0.1750 (  2109 PWs)   bands (ev):

   -84.7241 -48.0797 -48.0415 -47.8737 -41.7734 -13.9280 -13.7070 -13.6866
    -8.4909  -7.8396   3.5646   4.4973   5.4786   5.6781   6.7308   7.4352
     9.4207   9.8146  10.0979  11.6108  12.3896  15.6838  19.0368  20.5241
    22.7287  23.9976  25.5036

     occupation numbers 
     1.0000   1.0000   1.0000   1.0000   1.0000   1.0000   1.0000   1.0000
     1.0000   1.0000   1.0000   1.0000   1.0000   1.0000   1.0000   1.0000
     1.0000   1.0000   1.0002   0.0002   0.0000   0.0000   0.0000   0.0000
     0.0000   0.0000   0.0000

          k = 0.0000-0.5774 0.0000 (  2102 PWs)   bands (ev):

   -84.7234 -48.0883 -48.0434 -47.8722 -41.7680 -13.9739 -13.7166 -13.6678
    -8.2202  -7.9020   3.2438   4.6351   5.5097   5.9278   6.6889   6.7907
     9.3301   9.7156  10.0087  12.0051  12.4385  16.6372  18.1710  20.2583
    22.0636  24.0636  25.3173

     occupation numbers 
     1.0000   1.0000   1.0000   1.0000   1.0000   1.0000   1.0000   1.0000
     1.0000   1.0000   1.0000   1.0000   1.0000   1.0000   1.0000   1.0000
     1.0000   1.0000   1.0000   0.0000   0.0000   0.0000   0.0000   0.0000
     0.0000   0.0000   0.0000

          k = 0.0000-0.5774 0.1750 (  2116 PWs)   bands (ev):

   -84.7234 -48.0883 -48.0436 -47.8724 -41.7681 -13.9733 -13.7170 -13.6706
    -8.2120  -7.9008   3.1767   4.5473   5.5176   5.9345   6.6771   7.0313
     9.3189   9.7157   9.9996  12.0101  12.4416  16.1953  18.0410  21.1234
    22.2223  24.2383  25.3932

     occupation numbers 
     1.0000   1.0000   1.0000   1.0000   1.0000   1.0000   1.0000   1.0000
     1.0000   1.0000   1.0000   1.0000   1.0000   1.0000   1.0000   1.0000
     1.0000   1.0000   1.0000   0.0000   0.0000   0.0000   0.0000   0.0000
     0.0000   0.0000   0.0000

          k = 0.1250 0.2165 0.0000 (  2101 PWs)   bands (ev):

   -84.7265 -48.0517 -48.0359 -47.8777 -41.7902 -13.7795 -13.7259 -13.6817
    -9.2217  -7.7332   4.2447   4.4522   5.1731   6.0936   6.9912   8.0661
     9.5683   9.8686  10.2395  11.8110  12.1010  13.9498  19.4381  21.0031
    23.0620  24.9985  26.4165

     occupation numbers 
     1.0000   1.0000   1.0000   1.0000   1.0000   1.0000   1.0000   1.0000
     1.0000   1.0000   1.0000   1.0000   1.0000   1.0000   1.0000   1.0000
     1.0000   1.0000   1.0020   0.0000   0.0000   0.0000   0.0000   0.0000
     0.0000   0.0000   0.0000

          k = 0.1250 0.2165 0.1750 (  2101 PWs)   bands (ev):

   -84.7265 -48.0518 -48.0360 -47.8777 -41.7902 -13.7811 -13.7360 -13.6818
    -9.1007  -7.8595   4.2055   4.5872   5.1799   6.1788   6.9967   7.8028
     9.5683   9.8110  10.3279  11.5358  12.2108  14.3892  18.8586  21.4967
    23.1352  25.1164  25.3303

     occupation numbers 
     1.0000   1.0000   1.0000   1.0000   1.0000   1.0000   1.0000   1.0000
     1.0000   1.0000   1.0000   1.0000   1.0000   1.0000   1.0000   1.0000
     1.0000   1.0000   1.0071   0.0008   0.0000   0.0000   0.0000   0.0000
     0.0000   0.0000   0.0000

          k = 0.1250 0.3608 0.0000 (  2106 PWs)   bands (ev):

   -84.7247 -48.0704 -48.0431 -47.8745 -41.7773 -13.8788 -13.7182 -13.6921
    -8.7197  -7.7652   4.1327   4.5445   5.2491   5.4766   6.4592   7.6608
     9.5967   9.9699  10.1341  11.7214  12.0653  15.1559  19.9457  21.0443
    22.1576  23.9851  25.5839

     occupation numbers 
     1.0000   1.0000   1.0000   1.0000   1.0000   1.0000   1.0000   1.0000
     1.0000   1.0000   1.0000   1.0000   1.0000   1.0000   1.0000   1.0000
     1.0000   1.0000   1.0003   0.0000   0.0000   0.0000   0.0000   0.0000
     0.0000   0.0000   0.0000

          k = 0.1250 0.3608 0.1750 (  2102 PWs)   bands (ev):

   -84.7247 -48.0705 -48.0430 -47.8746 -41.7772 -13.8784 -13.7183 -13.6977
    -8.6479  -7.8331   3.9690   4.5162   5.3934   5.5895   6.4619   7.6803
     9.5893   9.9406  10.1373  11.5104  12.1301  15.2990  19.8092  20.7830
    23.0158  23.9194  25.1399

     occupation numbers 
     1.0000   1.0000   1.0000   1.0000   1.0000   1.0000   1.0000   1.0000
     1.0000   1.0000   1.0000   1.0000   1.0000   1.0000   1.0000   1.0000
     1.0000   1.0000   1.0003   0.0013   0.0000   0.0000   0.0000   0.0000
     0.0000   0.0000   0.0000

          k = 0.1250 0.5052 0.0000 (  2104 PWs)   bands (ev):

   -84.7234 -48.0836 -48.0482 -47.8722 -41.7681 -13.9475 -13.7437 -13.6677
    -8.2776  -7.8451   3.5344   4.5166   5.5097   5.8176   6.2741   6.9479
     9.4848   9.7854  10.0887  11.9238  12.1771  16.4254  18.7480  20.7307
    22.3990  23.8142  25.1396

     occupation numbers 
     1.0000   1.0000   1.0000   1.0000   1.0000   1.0000   1.0000   1.0000
     1.0000   1.0000   1.0000   1.0000   1.0000   1.0000   1.0000   1.0000
     1.0000   1.0000   1.0001   0.0000   0.0000   0.0000   0.0000   0.0000
     0.0000   0.0000   0.0000

          k = 0.1250 0.5052 0.1750 (  2107 PWs)   bands (ev):

   -84.7234 -48.0836 -48.0482 -47.8723 -41.7681 -13.9471 -13.7436 -13.6707
    -8.2627  -7.8511   3.4660   4.4352   5.5069   5.8663   6.2843   7.1136
     9.4715   9.7910  10.0711  11.8949  12.2134  16.2611  18.4868  21.2112
    22.7004  24.0158  25.1693

     occupation numbers 
     1.0000   1.0000   1.0000   1.0000   1.0000   1.0000   1.0000   1.0000
     1.0000   1.0000   1.0000   1.0000   1.0000   1.0000   1.0000   1.0000
     1.0000   1.0000   1.0001   0.0000   0.0000   0.0000   0.0000   0.0000
     0.0000   0.0000   0.0000

          k = 0.2500 0.4330 0.0000 (  2095 PWs)   bands (ev):

   -84.7233 -48.0770 -48.0546 -47.8722 -41.7680 -13.9111 -13.7804 -13.6677
    -8.3228  -7.8005   4.0716   4.2973   5.1873   5.7729   6.0336   7.0911
     9.5971   9.8335  10.2076  11.7749  11.9740  16.2906  19.2507  21.4493
    22.6631  23.3712  25.0845

     occupation numbers 
     1.0000   1.0000   1.0000   1.0000   1.0000   1.0000   1.0000   1.0000
     1.0000   1.0000   1.0000   1.0000   1.0000   1.0000   1.0000   1.0000
     1.0000   1.0000   1.0012   0.0000   0.0000   0.0000   0.0000   0.0000
     0.0000   0.0000   0.0000

          k = 0.2500 0.4330 0.1750 (  2101 PWs)   bands (ev):

   -84.7234 -48.0770 -48.0546 -47.8724 -41.7680 -13.9107 -13.7803 -13.6711
    -8.2859  -7.8301   3.9997   4.2124   5.1882   5.9096   6.0623   7.1128
     9.6034   9.8395  10.1517  11.8605  11.9768  16.0996  19.2162  21.6682
    22.9651  23.6653  24.6503

     occupation numbers 
     1.0000   1.0000   1.0000   1.0000   1.0000   1.0000   1.0000   1.0000
     1.0000   1.0000   1.0000   1.0000   1.0000   1.0000   1.0000   1.0000
     1.0000   1.0000   1.0004   0.0000   0.0000   0.0000   0.0000   0.0000
     0.0000   0.0000   0.0000

          k = 0.2500 0.5774 0.0000 (  2102 PWs)   bands (ev):

   -84.7228 -48.0776 -48.0617 -47.8714 -41.7642 -13.9118 -13.8188 -13.6578
    -8.1363  -7.8283   3.9285   4.3827   4.9226   5.9621   6.2553   6.5820
     9.4231   9.9705  10.1612  11.8547  11.9192  17.0622  18.5357  21.6812
    22.5931  23.7631  24.9322

     occupation numbers 
     1.0000   1.0000   1.0000   1.0000   1.0000   1.0000   1.0000   1.0000
     1.0000   1.0000   1.0000   1.0000   1.0000   1.0000   1.0000   1.0000
     1.0000   1.0000   1.0005   0.0000   0.0000   0.0000   0.0000   0.0000
     0.0000   0.0000   0.0000

          k = 0.2500 0.5774 0.1750 (  2105 PWs)   bands (ev):

   -84.7228 -48.0775 -48.0617 -47.8714 -41.7643 -13.9114 -13.8188 -13.6599
    -8.1330  -7.8232   3.8687   4.3321   4.9081   5.9824   6.2872   6.6496
     9.4326   9.9710  10.1306  11.9300  11.9897  16.8966  18.3529  22.2179
    22.8123  23.6510  24.5330

     occupation numbers 
     1.0000   1.0000   1.0000   1.0000   1.0000   1.0000   1.0000   1.0000
     1.0000   1.0000   1.0000   1.0000   1.0000   1.0000   1.0000   1.0000
     1.0000   1.0000   1.0003   0.0000   0.0000   0.0000   0.0000   0.0000
     0.0000   0.0000   0.0000

          k = 0.0000-0.1443 0.1750 (  2102 PWs)   bands (ev):

   -84.7278 -48.0380 -48.0315 -47.8799 -41.7994 -13.7728 -13.6976 -13.6597
    -9.3912  -7.8854   4.1743   4.6383   5.0672   7.0414   7.4467   7.6770
     9.3961   9.5721  10.3581  11.9950  12.4532  13.7234  17.9075  20.5360
    24.8091  25.8303  26.8451

     occupation numbers 
     1.0000   1.0000   1.0000   1.0000   1.0000   1.0000   1.0000   1.0000
     1.0000   1.0000   1.0000   1.0000   1.0000   1.0000   1.0000   1.0000
     1.0000   1.0000   1.0104   0.0000   0.0000   0.0000   0.0000   0.0000
     0.0000   0.0000   0.0000

          k = 0.0000-0.2887 0.1750 (  2100 PWs)   bands (ev):

   -84.7260 -48.0588 -48.0365 -47.8767 -41.7864 -13.8176 -13.7262 -13.6834
    -8.9640  -7.8611   4.1185   4.6239   5.2886   5.7602   7.0716   7.7572
     9.4648   9.8791  10.2443  11.5567  12.3381  14.3821  19.3584  21.6042
    22.5314  24.6153  25.5351

     occupation numbers 
     1.0000   1.0000   1.0000   1.0000   1.0000   1.0000   1.0000   1.0000
     1.0000   1.0000   1.0000   1.0000   1.0000   1.0000   1.0000   1.0000
     1.0000   1.0000   1.0021   0.0005   0.0000   0.0000   0.0000   0.0000
     0.0000   0.0000   0.0000

          k = 0.0000-0.4330 0.1750 (  2109 PWs)   bands (ev):

   -84.7241 -48.0797 -48.0415 -47.8737 -41.7734 -13.9282 -13.7070 -13.6872
    -8.4596  -7.8738   3.5728   4.4944   5.4710   5.7833   6.7414   7.2715
     9.4215   9.8148  10.0633  11.8392  12.3858  15.2265  19.4176  21.0571
    22.2724  24.4270  24.9734

     occupation numbers 
     1.0000   1.0000   1.0000   1.0000   1.0000   1.0000   1.0000   1.0000
     1.0000   1.0000   1.0000   1.0000   1.0000   1.0000   1.0000   1.0000
     1.0000   1.0000   1.0001   0.0000   0.0000   0.0000   0.0000   0.0000
     0.0000   0.0000   0.0000

          k =-0.1250-0.3608 0.1750 (  2102 PWs)   bands (ev):

   -84.7247 -48.0704 -48.0430 -47.8746 -41.7772 -13.8786 -13.7182 -13.6981
    -8.6340  -7.8485   3.9896   4.4988   5.3743   5.6489   6.4667   7.5983
     9.6014   9.9510  10.0816  11.7162  12.0732  15.0641  20.0516  21.0059
    22.8551  24.0698  24.8170

     occupation numbers 
     1.0000   1.0000   1.0000   1.0000   1.0000   1.0000   1.0000   1.0000
     1.0000   1.0000   1.0000   1.0000   1.0000   1.0000   1.0000   1.0000
     1.0000   1.0000   1.0001   0.0000   0.0000   0.0000   0.0000   0.0000
     0.0000   0.0000   0.0000

          k =-0.1250-0.5052 0.1750 (  2107 PWs)   bands (ev):

   -84.7234 -48.0836 -48.0482 -47.8723 -41.7681 -13.9471 -13.7436 -13.6709
    -8.2415  -7.8735   3.4637   4.4439   5.5042   5.9127   6.3063   7.0217
     9.4833   9.7876  10.0539  11.9961  12.1868  16.0234  18.6914  21.6568
    22.3607  24.0166  24.9765

     occupation numbers 
     1.0000   1.0000   1.0000   1.0000   1.0000   1.0000   1.0000   1.0000
     1.0000   1.0000   1.0000   1.0000   1.0000   1.0000   1.0000   1.0000
     1.0000   1.0000   1.0001   0.0000   0.0000   0.0000   0.0000   0.0000
     0.0000   0.0000   0.0000

     the Fermi energy is    11.0382 ev

     WARNING: integrated charge=    38.00814087, expected=    38.00000000

!    total energy              =    -569.32907378 Ry
     total all-electron energy =     -3412.819629 Ry
     estimated scf accuracy    <          7.1E-09 Ry
     smearing contrib. (-TS)   =       0.00012441 Ry
     internal energy E=F+TS    =    -569.32919819 Ry

     The total energy is F=E-TS. E is the sum of the following terms:
     one-electron contribution =    -312.16903014 Ry
     hartree contribution      =     178.04380150 Ry
     xc contribution           =     -60.48390982 Ry
     ewald contribution        =    -252.79501836 Ry
     one-center paw contrib.   =    -121.92504137 Ry
      -> PAW hartree energy AE =     347.05619022 Ry
      -> PAW hartree energy PS =    -347.03459299 Ry
      -> PAW xc energy AE      =    -179.42602226 Ry
      -> PAW xc energy PS      =      57.47938366 Ry
      -> total E_H with PAW    =     178.06539872 Ry
      -> total E_XC with PAW   =    -182.43054842 Ry

     total magnetization       =     0.00 Bohr mag/cell
     absolute magnetization    =     0.00 Bohr mag/cell

     convergence has been achieved in  33 iterations

     Forces acting on atoms (cartesian axes, Ry/au):

     atom    1 type  1   force =     0.00000000    0.00000000    0.01603145
     atom    2 type  2   force =     0.00000000    0.00000000   -0.06395566
     atom    3 type  2   force =     0.00000000    0.00000000   -0.03652151
     atom    4 type  3   force =     0.00000000    0.00000000    0.08444571
     The non-local contrib.  to forces
     atom    1 type  1   force =     0.00000000   -0.00000000   -0.01655920
     atom    2 type  2   force =     0.00000000    0.00000000   -0.75806420
     atom    3 type  2   force =    -0.00000000   -0.00000000    0.50214057
     atom    4 type  3   force =     0.00000000    0.00000000    0.21946817
     The ionic contribution  to forces
     atom    1 type  1   force =    -0.00000000    0.00000000    3.89690286
     atom    2 type  2   force =     0.00000000   -0.00000000   17.99566529
     atom    3 type  2   force =    -0.00000000    0.00000000  -17.53069309
     atom    4 type  3   force =     0.00000000   -0.00000000   -4.36187505
     The local contribution  to forces
     atom    1 type  1   force =     0.00000000    0.00000000   -3.86430016
     atom    2 type  2   force =     0.00000001   -0.00000001  -17.30883601
     atom    3 type  2   force =    -0.00000001    0.00000001   16.99624878
     atom    4 type  3   force =     0.00000006   -0.00000004    4.22705095
     The core correction contribution to forces
     atom    1 type  1   force =     0.00000000   -0.00000000   -0.00012168
     atom    2 type  2   force =    -0.00000000    0.00000000    0.00743532
     atom    3 type  2   force =     0.00000000   -0.00000000   -0.00436148
     atom    4 type  3   force =     0.00000000   -0.00000000   -0.00016670
     The Hubbard contrib.    to forces
     atom    1 type  1   force =     0.00000000    0.00000000    0.00000000
     atom    2 type  2   force =     0.00000000    0.00000000    0.00000000
     atom    3 type  2   force =     0.00000000    0.00000000    0.00000000
     atom    4 type  3   force =     0.00000000    0.00000000    0.00000000
     The SCF correction term to forces
     atom    1 type  1   force =    -0.00000000    0.00000000    0.00011957
     atom    2 type  2   force =     0.00000000   -0.00000000   -0.00014613
     atom    3 type  2   force =    -0.00000000    0.00000000    0.00015365
     atom    4 type  3   force =     0.00000000   -0.00000000   -0.00002172

     Total force =     0.113191     Total SCF correction =     0.000244

     Writing all to output data dir ./out/pw.save/ :
     XML data file, charge density, pseudopotentials, collected wavefunctions
 
     init_run     :      9.76s CPU      2.37s WALL (       1 calls)
     electrons    :    150.83s CPU     38.82s WALL (       1 calls)
     forces       :      0.59s CPU      0.56s WALL (       1 calls)

     Called by init_run:
     wfcinit      :      0.26s CPU      0.31s WALL (       1 calls)
     wfcinit:atom :      0.04s CPU      0.04s WALL (      50 calls)
     wfcinit:wfcr :      0.16s CPU      0.19s WALL (      50 calls)
     potinit      :      8.98s CPU      1.52s WALL (       1 calls)
     hinit0       :      0.44s CPU      0.44s WALL (       1 calls)

     Called by electrons:
     c_bands      :     17.06s CPU     16.99s WALL (      33 calls)
     sum_band     :      3.55s CPU      3.52s WALL (      33 calls)
     v_of_rho     :      0.49s CPU      0.21s WALL (      34 calls)
     v_h          :      0.35s CPU      0.04s WALL (      34 calls)
     v_xc         :      0.15s CPU      0.18s WALL (      35 calls)
     newd         :      0.78s CPU      0.56s WALL (      34 calls)
                                        0.56s GPU  (      34 calls)
     PAW_pot      :    132.17s CPU     17.51s WALL (      34 calls)
     mix_rho      :      0.48s CPU      0.51s WALL (      33 calls)

     Called by c_bands:
     init_us_2    :      1.39s CPU      1.35s WALL (    3400 calls)
     cegterg      :     14.66s CPU     14.64s WALL (    1650 calls)

     Called by sum_band:
     sum_band:wei :      0.05s CPU      0.05s WALL (      33 calls)
                                        0.05s GPU  (      33 calls)
     sum_band:loo :      2.24s CPU      2.20s WALL (      33 calls)
                                        2.20s GPU  (      33 calls)
     sum_band:buf :      0.21s CPU      0.25s WALL (    1650 calls)
                                        0.23s GPU  (    1650 calls)
     sum_band:ini :      0.67s CPU      0.68s WALL (    1650 calls)
                                        0.66s GPU  (    1650 calls)
     sum_band:cal :      0.06s CPU      0.10s WALL (    1650 calls)
                                        0.08s GPU  (    1650 calls)
     sum_band:bec :      0.36s CPU      0.39s WALL (    1650 calls)
                                        0.37s GPU  (    1650 calls)
     addusdens    :      1.10s CPU      1.10s WALL (      33 calls)
                                        1.10s GPU  (      33 calls)
     addusd:skk   :      0.01s CPU      0.01s WALL (      99 calls)
                                        0.01s GPU  (      99 calls)

     Called by *egterg:
     cdiaghg      :      5.01s CPU      5.19s WALL (    5996 calls)
                                        5.11s GPU  (    5996 calls)
     cegterg:over :      0.76s CPU      0.79s WALL (    4346 calls)
     cegterg:upda :      0.92s CPU      0.93s WALL (    4346 calls)
     cegterg:last :      0.16s CPU      0.16s WALL (    2830 calls)
     h_psi        :      5.38s CPU      5.36s WALL (    6046 calls)
                                        5.28s GPU  (    6046 calls)
     s_psi        :      0.95s CPU      0.99s WALL (    6046 calls)
     g_psi        :      0.02s CPU      0.11s WALL (    4346 calls)
                                        0.05s GPU  (    4346 calls)

     Called by h_psi:
     h_psi:calbec :      0.17s CPU      0.32s WALL (    6046 calls)
                                        0.24s GPU  (    6046 calls)
     vloc_psi     :      3.71s CPU      3.61s WALL (    6046 calls)
                                        3.53s GPU  (    6046 calls)
     add_vuspsi   :      0.86s CPU      1.00s WALL (    6046 calls)
                                        0.92s GPU  (    6046 calls)

     General routines
     calbec       :      0.20s CPU      0.22s WALL (    7896 calls)
     fft          :      3.03s CPU      0.61s WALL (     863 calls)
                                        0.03s GPU  (     795 calls)
     ffts         :      1.97s CPU      0.34s WALL (     134 calls)
                                        0.00s GPU  (      66 calls)
     fftw         :      0.39s CPU      1.20s WALL (   22174 calls)
                                        0.95s GPU  (   22174 calls)
     interpolate  :      5.11s CPU      0.93s WALL (      68 calls)
 
     Parallel routines

     PAW routines
     PAW_pot      :    132.17s CPU     17.51s WALL (      34 calls)
     PAW_symme    :      0.03s CPU      0.01s WALL (      67 calls)
 
     PWSCF        :   2m42.00s CPU     42.26s WALL

 
   This run was terminated on:   2:13:49  12Jul2026            

=------------------------------------------------------------------------------=
   JOB DONE.
=------------------------------------------------------------------------------=
Warning: ieee_divide_by_zero is signaling
Warning: ieee_inexact is signaling
FORTRAN STOP
