
     Program PWSCF v.7.3.1 starts on 12Jul2026 at  2:21:50 

     This program is part of the open-source Quantum ESPRESSO suite
     for quantum simulation of materials; please cite
         "P. Giannozzi et al., J. Phys.:Condens. Matter 21 395502 (2009);
         "P. Giannozzi et al., J. Phys.:Condens. Matter 29 465901 (2017);
         "P. Giannozzi et al., J. Chem. Phys. 152 154105 (2020);
          URL http://www.quantum-espresso.org", 
     in publications or presentations arising from this work. More details at
     http://www.quantum-espresso.org/quote

     Parallel version (MPI & OpenMP), running on      14 processor cores
     Number of MPI processes:                 1
     Threads/MPI process:                    14

     MPI processes distributed on     1 nodes
     848518 MiB available memory on the printing compute node when the environment starts
 
     Reading input from pw.in

     Current dimensions of program PWSCF are:
     Max number of different atomic species (ntypx) = 10
     Max number of k-points (npk) =  40000
     Max angular momentum in pseudopotentials (lmaxx) =  4
     file Co.pbe-spn-kjpaw_psl.0.3.1.UPF: wavefunction(s)  3P 3D renormalized
     file O.pbe-n-kjpaw_psl.1.0.0.UPF: wavefunction(s)  2S 2P renormalized
     file Na.pbe-spn-kjpaw_psl.1.0.0.UPF: wavefunction(s)  2P renormalized
 
     Subspace diagonalization in iterative solution of the eigenvalue problem:
     a serial algorithm will be used

 
     G-vector sticks info
     --------------------
     sticks:   dense  smooth     PW     G-vecs:    dense   smooth      PW
     Sum        2941    1483    421               178951    63407    9467
 
     Using Slab Decomposition
 


     bravais-lattice index     =            4
     lattice parameter (alat)  =       9.4527  a.u.
     unit-cell volume          =    1009.0018 (a.u.)^3
     number of atoms/cell      =           10
     number of atomic types    =            3
     number of electrons       =        96.00
     number of Kohn-Sham states=           64
     kinetic-energy cutoff     =      60.0000  Ry
     charge density cutoff     =     480.0000  Ry
     scf convergence threshold =      1.0E-08
     mixing beta               =       0.3000
     number of iterations used =            8  plain     mixing
     Exchange-correlation= SLA  PW   PBX  PBC
                           (   1   4   3   4   0   0   0)

     GPU acceleration is ACTIVE.  1 visible GPUs per MPI rank
     GPU-aware MPI enabled


     GPU used by master process:

        Device Number: 0
        Device name: NVIDIA A100-SXM4-80GB
        Compute capability : 80
        Ratio of single to double precision performance  : 2
        Memory Clock Rate (KHz): 1593000
        Memory Bus Width (bits): 5120
        Peak Memory Bandwidth (GB/s): ******

     celldm(1)=   9.452718  celldm(2)=   0.000000  celldm(3)=   1.379403
     celldm(4)=   0.000000  celldm(5)=   0.000000  celldm(6)=   0.000000

     crystal axes: (cart. coord. in units of alat)
               a(1) = (   1.000000   0.000000   0.000000 )  
               a(2) = (  -0.500000   0.866025   0.000000 )  
               a(3) = (   0.000000   0.000000   1.379403 )  

     reciprocal axes: (cart. coord. in units 2 pi/alat)
               b(1) = (  1.000000  0.577350 -0.000000 )  
               b(2) = (  0.000000  1.154701  0.000000 )  
               b(3) = (  0.000000 -0.000000  0.724951 )  


     PseudoPot. # 1 for Co read from file:
     ../../pseudo/Co.pbe-spn-kjpaw_psl.0.3.1.UPF
     MD5 check sum: 3c0a43779828c046024e4f3be63f8e67
     Pseudo is Projector augmented-wave + core cor, Zval = 17.0
     Generated using &quot;atomic&quot; code by A. Dal Corso  v.6.2.2
     Shape of augmentation charge: PSQ
     Using radial grid of 1193 points,  6 beta functions with: 
                l(1) =   0
                l(2) =   0
                l(3) =   1
                l(4) =   1
                l(5) =   2
                l(6) =   2
     Q(r) pseudized with 0 coefficients 


     PseudoPot. # 2 for O  read from file:
     ../../pseudo/O.pbe-n-kjpaw_psl.1.0.0.UPF
     MD5 check sum: e99d9cef9b487d1ca56f5b95ecd0fd7a
     Pseudo is Projector augmented-wave + core cor, Zval =  6.0
     Generated using &quot;atomic&quot; code by A. Dal Corso  v.6.3
     Shape of augmentation charge: PSQ
     Using radial grid of 1095 points,  4 beta functions with: 
                l(1) =   0
                l(2) =   0
                l(3) =   1
                l(4) =   1
     Q(r) pseudized with 0 coefficients 


     PseudoPot. # 3 for Na read from file:
     ../../pseudo/Na.pbe-spn-kjpaw_psl.1.0.0.UPF
     MD5 check sum: 05b4deb74e3932c23ab016979dc8b5d4
     Pseudo is Projector augmented-wave + core cor, Zval =  9.0
     Generated using &quot;atomic&quot; code by A. Dal Corso  v.6.3
     Shape of augmentation charge: PSQ
     Using radial grid of 1121 points,  4 beta functions with: 
                l(1) =   0
                l(2) =   0
                l(3) =   1
                l(4) =   1
     Q(r) pseudized with 0 coefficients 


     atomic species   valence    mass     pseudopotential
     Co               17.00    58.93300     Co( 1.00)
     O                 6.00    15.99900     O ( 1.00)
     Na                9.00    22.98977     Na( 1.00)

     Starting magnetic structure 
     atomic species   magnetization
     Co              0.300
     O               0.000
     Na              0.000

      6 Sym. Ops. (no inversion) found ( 4 have fractional translation)


                                    s                        frac. trans.

      isym =  1     identity                                     

 cryst.   s( 1) = (     1          0          0      )
                  (     0          1          0      )
                  (     0          0          1      )

 cart.    s( 1) = (  1.0000000  0.0000000  0.0000000 )
                  (  0.0000000  1.0000000  0.0000000 )
                  (  0.0000000  0.0000000  1.0000000 )


      isym =  2     120 deg rotation - cryst. axis [0,0,1]       

 cryst.   s( 2) = (     0          1          0      )    f =(  0.3333333 )
                  (    -1         -1          0      )       ( -0.3333333 )
                  (     0          0          1      )       (  0.0000000 )

 cart.    s( 2) = ( -0.5000000 -0.8660254  0.0000000 )    f =(  0.5000000 )
                  (  0.8660254 -0.5000000  0.0000000 )       ( -0.2886751 )
                  (  0.0000000  0.0000000  1.0000000 )       (  0.0000000 )


      isym =  3     120 deg rotation - cryst. axis [0,0,-1]      

 cryst.   s( 3) = (    -1         -1          0      )    f =( -0.3333333 )
                  (     1          0          0      )       (  0.3333333 )
                  (     0          0          1      )       (  0.0000000 )

 cart.    s( 3) = ( -0.5000000  0.8660254  0.0000000 )    f =( -0.5000000 )
                  ( -0.8660254 -0.5000000  0.0000000 )       (  0.2886751 )
                  (  0.0000000  0.0000000  1.0000000 )       (  0.0000000 )


      isym =  4     inv. 180 deg rotation - cart. axis [0,1,0]   

 cryst.   s( 4) = (     1          0          0      )    f =( -0.3333333 )
                  (    -1         -1          0      )       (  0.3333333 )
                  (     0          0          1      )       (  0.0000000 )

 cart.    s( 4) = (  1.0000000  0.0000000  0.0000000 )    f =( -0.5000000 )
                  (  0.0000000 -1.0000000  0.0000000 )       (  0.2886751 )
                  (  0.0000000  0.0000000  1.0000000 )       (  0.0000000 )


      isym =  5     inv. 180 deg rotation - cryst. axis [1,-1,0] 

 cryst.   s( 5) = (     0          1          0      )
                  (     1          0          0      )
                  (     0          0          1      )

 cart.    s( 5) = ( -0.5000000  0.8660254  0.0000000 )
                  (  0.8660254  0.5000000  0.0000000 )
                  (  0.0000000  0.0000000  1.0000000 )


      isym =  6     inv. 180 deg rotation - cryst. axis [2,1,0]  

 cryst.   s( 6) = (    -1         -1          0      )    f =(  0.3333333 )
                  (     0          1          0      )       ( -0.3333333 )
                  (     0          0          1      )       (  0.0000000 )

 cart.    s( 6) = ( -0.5000000 -0.8660254  0.0000000 )    f =(  0.5000000 )
                  ( -0.8660254  0.5000000  0.0000000 )       ( -0.2886751 )
                  (  0.0000000  0.0000000  1.0000000 )       (  0.0000000 )


     point group C_3v (3m)  
     there are  3 classes
     the character table:

       E     2C3   3s_v 
A_1    1.00  1.00  1.00
A_2    1.00  1.00 -1.00
E      2.00 -1.00  0.00

     the symmetry operations in each class and the name of the first element:

     E        1
          identity                                               
     2C3      2    3
          120 deg rotation - cryst. axis [0,0,1]                 
     3s_v     4    6    5
          inv. 180 deg rotation - cart. axis [0,1,0]             

   Cartesian axes

     site n.     atom                  positions (alat units)
         1        Co     tau(   1) = (   0.0000000   0.0000000   0.0000000  )
         2        Co     tau(   2) = (  -0.0000000   0.5773503   0.0000000  )
         3        Co     tau(   3) = (   0.5000000   0.2886751   0.0000000  )
         4        O      tau(   4) = (   0.1666667   0.2886751   0.1919170  )
         5        O      tau(   5) = (   0.6666667   0.0000000   0.1919170  )
         6        O      tau(   6) = (  -0.3333333   0.5773503   0.1919170  )
         7        O      tau(   7) = (   0.3333333   0.0000000   1.1874864  )
         8        O      tau(   8) = (   0.3333333   0.5773503   1.1874864  )
         9        O      tau(   9) = (  -0.1666667   0.2886751   1.1874864  )
        10        Na     tau(  10) = (   0.1666667   0.2886751   0.6897017  )

   Crystallographic axes

     site n.     atom                  positions (cryst. coord.)
         1        Co     tau(   1) = (  0.0000000  0.0000000  0.0000000  )
         2        Co     tau(   2) = (  0.3333333  0.6666667  0.0000000  )
         3        Co     tau(   3) = (  0.6666667  0.3333333  0.0000000  )
         4        O      tau(   4) = (  0.3333333  0.3333333  0.1391304  )
         5        O      tau(   5) = (  0.6666667  0.0000000  0.1391304  )
         6        O      tau(   6) = (  0.0000000  0.6666667  0.1391304  )
         7        O      tau(   7) = (  0.3333333  0.0000000  0.8608696  )
         8        O      tau(   8) = (  0.6666667  0.6666667  0.8608696  )
         9        O      tau(   9) = ( -0.0000000  0.3333333  0.8608696  )
        10        Na     tau(  10) = (  0.3333333  0.3333333  0.5000000  )

     number of k points=    17  Marzari-Vanderbilt smearing, width (Ry)=  0.0200
                       cart. coord. in units 2pi/alat
        k(    1) = (   0.0000000   0.0000000   0.0000000), wk =   0.0092593
        k(    2) = (   0.0000000   0.0000000   0.2416504), wk =   0.0185185
        k(    3) = (   0.0000000   0.1924501   0.0000000), wk =   0.0555556
        k(    4) = (   0.0000000   0.1924501   0.2416504), wk =   0.1111111
        k(    5) = (   0.0000000   0.3849002   0.0000000), wk =   0.0555556
        k(    6) = (   0.0000000   0.3849002   0.2416504), wk =   0.1111111
        k(    7) = (   0.0000000  -0.5773503   0.0000000), wk =   0.0277778
        k(    8) = (   0.0000000  -0.5773503   0.2416504), wk =   0.0555556
        k(    9) = (   0.1666667   0.2886751   0.0000000), wk =   0.0555556
        k(   10) = (   0.1666667   0.2886751   0.2416504), wk =   0.0555556
        k(   11) = (   0.1666667   0.4811252   0.0000000), wk =   0.1111111
        k(   12) = (   0.1666667   0.4811252   0.2416504), wk =   0.1111111
        k(   13) = (   0.3333333   0.5773503   0.0000000), wk =   0.0185185
        k(   14) = (   0.3333333   0.5773503   0.2416504), wk =   0.0185185
        k(   15) = (  -0.1666667  -0.2886751   0.2416504), wk =   0.0555556
        k(   16) = (  -0.1666667  -0.4811252   0.2416504), wk =   0.1111111
        k(   17) = (  -0.3333333  -0.5773503   0.2416504), wk =   0.0185185

                       cryst. coord.
        k(    1) = (   0.0000000   0.0000000   0.0000000), wk =   0.0092593
        k(    2) = (   0.0000000   0.0000000   0.3333333), wk =   0.0185185
        k(    3) = (   0.0000000   0.1666667   0.0000000), wk =   0.0555556
        k(    4) = (   0.0000000   0.1666667   0.3333333), wk =   0.1111111
        k(    5) = (   0.0000000   0.3333333   0.0000000), wk =   0.0555556
        k(    6) = (   0.0000000   0.3333333   0.3333333), wk =   0.1111111
        k(    7) = (   0.0000000  -0.5000000   0.0000000), wk =   0.0277778
        k(    8) = (   0.0000000  -0.5000000   0.3333333), wk =   0.0555556
        k(    9) = (   0.1666667   0.1666667   0.0000000), wk =   0.0555556
        k(   10) = (   0.1666667   0.1666667   0.3333333), wk =   0.0555556
        k(   11) = (   0.1666667   0.3333333   0.0000000), wk =   0.1111111
        k(   12) = (   0.1666667   0.3333333   0.3333333), wk =   0.1111111
        k(   13) = (   0.3333333   0.3333333   0.0000000), wk =   0.0185185
        k(   14) = (   0.3333333   0.3333333   0.3333333), wk =   0.0185185
        k(   15) = (  -0.1666667  -0.1666667   0.3333333), wk =   0.0555556
        k(   16) = (  -0.1666667  -0.3333333   0.3333333), wk =   0.1111111
        k(   17) = (  -0.3333333  -0.3333333   0.3333333), wk =   0.0185185

     Dense  grid:   178951 G-vectors     FFT dimensions: (  72,  72,  96)

     Smooth grid:    63407 G-vectors     FFT dimensions: (  48,  48,  72)

     Dynamical RAM for                 wfc:       7.73 MB

     Dynamical RAM for     wfc (w. buffer):     270.67 MB

     Dynamical RAM for           str. fact:       8.19 MB

     Dynamical RAM for           local pot:       0.00 MB

     Dynamical RAM for          nlocal pot:      13.29 MB

     Dynamical RAM for                qrad:       5.27 MB

     Dynamical RAM for          rho,v,vnew:      39.16 MB

     Dynamical RAM for               rhoin:      13.05 MB

     Dynamical RAM for            rho*nmix:      87.38 MB

     Dynamical RAM for           G-vectors:      10.72 MB

     Dynamical RAM for          h,s,v(r/c):       0.75 MB

     Dynamical RAM for          <psi|beta>:       0.11 MB

     Dynamical RAM for                 psi:      15.47 MB

     Dynamical RAM for                hpsi:      15.47 MB

     Dynamical RAM for                spsi:      15.47 MB

     Dynamical RAM for      wfcinit/wfcrot:      15.56 MB

     Dynamical RAM for           addusdens:     527.00 MB

     Dynamical RAM for          addusforce:     554.35 MB

     Estimated static dynamical RAM per process >     394.07 MB

     Estimated max dynamical RAM per process >       1.01 GB

     Check: negative core charge=   -0.000008
     Generating pointlists ...
     new r_m :   0.1587 (alat units)  1.4998 (a.u.) for type    1
     new r_m :   0.1587 (alat units)  1.4998 (a.u.) for type    2
     new r_m :   0.2053 (alat units)  1.9410 (a.u.) for type    3

     Initial potential from superposition of free atoms

     starting charge      95.9928, renormalised to      96.0000
     Starting wfcs are   59 randomized atomic wfcs +    5 random wfcs
     Checking if some PAW data can be deallocated... 

     total cpu time spent up to now is        5.1 secs

     Self-consistent Calculation
[tb_dev] Currently allocated     9.94E-01 Mbytes, locked:    0 /   6
[tb_pin] Currently allocated     0.00E+00 Mbytes, locked:    0 /   0

     iteration #  1     ecut=    60.00 Ry     beta= 0.30
     Davidson diagonalization with overlap

---- Real-time Memory Report at c_bands before calling an iterative solver
           971 MiB given to the printing process from OS
             0 MiB allocation reported by mallinfo(arena+hblkhd)
        847636 MiB available memory on the node where the printing process lives
     GPU memory used/free/total (MiB): 1616 / 79534 / 81151
------------------
     ethr =  1.00E-02,  avg # of iterations =  9.7

     total cpu time spent up to now is        8.7 secs

     total energy              =   -1486.75053616 Ry
     estimated scf accuracy    <       6.12395975 Ry

     total magnetization       =    14.00 Bohr mag/cell
     absolute magnetization    =    14.00 Bohr mag/cell
[tb_dev] Currently allocated     7.63E-05 Mbytes, locked:    0 /   2
[tb_pin] Currently allocated     0.00E+00 Mbytes, locked:    0 /   0

     iteration #  2     ecut=    60.00 Ry     beta= 0.30
     Davidson diagonalization with overlap

---- Real-time Memory Report at c_bands before calling an iterative solver
          1029 MiB given to the printing process from OS
             0 MiB allocation reported by mallinfo(arena+hblkhd)
        847585 MiB available memory on the node where the printing process lives
     GPU memory used/free/total (MiB): 1666 / 79484 / 81151
------------------
     ethr =  6.38E-03,  avg # of iterations =  2.0

     total cpu time spent up to now is       11.3 secs

     total energy              =   -1487.47591849 Ry
     estimated scf accuracy    <      17.56704624 Ry

     total magnetization       =     1.69 Bohr mag/cell
     absolute magnetization    =     1.98 Bohr mag/cell
[tb_dev] Currently allocated     7.63E-05 Mbytes, locked:    0 /   2
[tb_pin] Currently allocated     0.00E+00 Mbytes, locked:    0 /   0

     iteration #  3     ecut=    60.00 Ry     beta= 0.30
     Davidson diagonalization with overlap

---- Real-time Memory Report at c_bands before calling an iterative solver
          1033 MiB given to the printing process from OS
             0 MiB allocation reported by mallinfo(arena+hblkhd)
        847634 MiB available memory on the node where the printing process lives
     GPU memory used/free/total (MiB): 1666 / 79484 / 81151
------------------
     ethr =  6.38E-03,  avg # of iterations =  1.0

     total cpu time spent up to now is       13.6 secs

     total energy              =   -1488.85704027 Ry
     estimated scf accuracy    <       0.37771697 Ry

     total magnetization       =     8.71 Bohr mag/cell
     absolute magnetization    =     8.72 Bohr mag/cell
[tb_dev] Currently allocated     7.63E-05 Mbytes, locked:    0 /   2
[tb_pin] Currently allocated     0.00E+00 Mbytes, locked:    0 /   0

     iteration #  4     ecut=    60.00 Ry     beta= 0.30
     Davidson diagonalization with overlap

---- Real-time Memory Report at c_bands before calling an iterative solver
          1037 MiB given to the printing process from OS
             0 MiB allocation reported by mallinfo(arena+hblkhd)
        847605 MiB available memory on the node where the printing process lives
     GPU memory used/free/total (MiB): 1666 / 79484 / 81151
------------------
     ethr =  3.93E-04,  avg # of iterations =  9.1

     total cpu time spent up to now is       17.2 secs

     total energy              =   -1489.03187672 Ry
     estimated scf accuracy    <       0.97554028 Ry

     total magnetization       =     4.78 Bohr mag/cell
     absolute magnetization    =     5.37 Bohr mag/cell
[tb_dev] Currently allocated     7.63E-05 Mbytes, locked:    0 /   2
[tb_pin] Currently allocated     0.00E+00 Mbytes, locked:    0 /   0

     iteration #  5     ecut=    60.00 Ry     beta= 0.30
     Davidson diagonalization with overlap

---- Real-time Memory Report at c_bands before calling an iterative solver
          1044 MiB given to the printing process from OS
             0 MiB allocation reported by mallinfo(arena+hblkhd)
        847578 MiB available memory on the node where the printing process lives
     GPU memory used/free/total (MiB): 1666 / 79484 / 81151
------------------
     ethr =  3.93E-04,  avg # of iterations =  1.9

     total cpu time spent up to now is       19.7 secs

     total energy              =   -1489.12107497 Ry
     estimated scf accuracy    <       0.49604022 Ry

     total magnetization       =     4.68 Bohr mag/cell
     absolute magnetization    =     5.34 Bohr mag/cell
[tb_dev] Currently allocated     7.63E-05 Mbytes, locked:    0 /   2
[tb_pin] Currently allocated     0.00E+00 Mbytes, locked:    0 /   0

     iteration #  6     ecut=    60.00 Ry     beta= 0.30
     Davidson diagonalization with overlap

---- Real-time Memory Report at c_bands before calling an iterative solver
          1050 MiB given to the printing process from OS
             0 MiB allocation reported by mallinfo(arena+hblkhd)
        847572 MiB available memory on the node where the printing process lives
     GPU memory used/free/total (MiB): 1666 / 79484 / 81151
------------------
     c_bands:  1 eigenvalues not converged
     ethr =  3.93E-04,  avg # of iterations =  2.5

     negative rho (up, down):  0.000E+00 1.768E-05

     total cpu time spent up to now is       22.2 secs

     total energy              =   -1489.26668525 Ry
     estimated scf accuracy    <       0.19628972 Ry

     total magnetization       =     2.50 Bohr mag/cell
     absolute magnetization    =     3.81 Bohr mag/cell
[tb_dev] Currently allocated     7.63E-05 Mbytes, locked:    0 /   2
[tb_pin] Currently allocated     0.00E+00 Mbytes, locked:    0 /   0

     iteration #  7     ecut=    60.00 Ry     beta= 0.30
     Davidson diagonalization with overlap

---- Real-time Memory Report at c_bands before calling an iterative solver
          1056 MiB given to the printing process from OS
             0 MiB allocation reported by mallinfo(arena+hblkhd)
        847543 MiB available memory on the node where the printing process lives
     GPU memory used/free/total (MiB): 1666 / 79484 / 81151
------------------
     ethr =  2.04E-04,  avg # of iterations =  5.3

     negative rho (up, down):  0.000E+00 1.623E-07

     total cpu time spent up to now is       25.2 secs

     total energy              =   -1489.29648667 Ry
     estimated scf accuracy    <       0.05608807 Ry

     total magnetization       =     2.09 Bohr mag/cell
     absolute magnetization    =     2.71 Bohr mag/cell
[tb_dev] Currently allocated     7.63E-05 Mbytes, locked:    0 /   2
[tb_pin] Currently allocated     0.00E+00 Mbytes, locked:    0 /   0

     iteration #  8     ecut=    60.00 Ry     beta= 0.30
     Davidson diagonalization with overlap

---- Real-time Memory Report at c_bands before calling an iterative solver
          1062 MiB given to the printing process from OS
             0 MiB allocation reported by mallinfo(arena+hblkhd)
        847481 MiB available memory on the node where the printing process lives
     GPU memory used/free/total (MiB): 1666 / 79484 / 81151
------------------
     c_bands:  1 eigenvalues not converged
     ethr =  5.84E-05,  avg # of iterations =  8.2

     total cpu time spent up to now is       28.6 secs

     total energy              =   -1489.29244558 Ry
     estimated scf accuracy    <       0.07722029 Ry

     total magnetization       =     2.23 Bohr mag/cell
     absolute magnetization    =     2.56 Bohr mag/cell
[tb_dev] Currently allocated     7.63E-05 Mbytes, locked:    0 /   2
[tb_pin] Currently allocated     0.00E+00 Mbytes, locked:    0 /   0

     iteration #  9     ecut=    60.00 Ry     beta= 0.30
     Davidson diagonalization with overlap

---- Real-time Memory Report at c_bands before calling an iterative solver
          1068 MiB given to the printing process from OS
             0 MiB allocation reported by mallinfo(arena+hblkhd)
        847512 MiB available memory on the node where the printing process lives
     GPU memory used/free/total (MiB): 1666 / 79484 / 81151
------------------
     ethr =  5.84E-05,  avg # of iterations =  1.9

     total cpu time spent up to now is       31.0 secs

     total energy              =   -1489.31290624 Ry
     estimated scf accuracy    <       0.06010859 Ry

     total magnetization       =     2.01 Bohr mag/cell
     absolute magnetization    =     2.61 Bohr mag/cell
[tb_dev] Currently allocated     7.63E-05 Mbytes, locked:    0 /   2
[tb_pin] Currently allocated     0.00E+00 Mbytes, locked:    0 /   0

     iteration # 10     ecut=    60.00 Ry     beta= 0.30
     Davidson diagonalization with overlap

---- Real-time Memory Report at c_bands before calling an iterative solver
          1074 MiB given to the printing process from OS
             0 MiB allocation reported by mallinfo(arena+hblkhd)
        847477 MiB available memory on the node where the printing process lives
     GPU memory used/free/total (MiB): 1666 / 79484 / 81151
------------------
     ethr =  5.84E-05,  avg # of iterations =  2.0

     total cpu time spent up to now is       33.5 secs

     total energy              =   -1489.31585422 Ry
     estimated scf accuracy    <       0.01212273 Ry

     total magnetization       =     2.30 Bohr mag/cell
     absolute magnetization    =     2.40 Bohr mag/cell
[tb_dev] Currently allocated     7.63E-05 Mbytes, locked:    0 /   2
[tb_pin] Currently allocated     0.00E+00 Mbytes, locked:    0 /   0

     iteration # 11     ecut=    60.00 Ry     beta= 0.30
     Davidson diagonalization with overlap

---- Real-time Memory Report at c_bands before calling an iterative solver
          1074 MiB given to the printing process from OS
             0 MiB allocation reported by mallinfo(arena+hblkhd)
        847423 MiB available memory on the node where the printing process lives
     GPU memory used/free/total (MiB): 1666 / 79484 / 81151
------------------
     ethr =  1.26E-05,  avg # of iterations =  6.9

     total cpu time spent up to now is       36.6 secs

     total energy              =   -1489.31670258 Ry
     estimated scf accuracy    <       0.00463902 Ry

     total magnetization       =     2.41 Bohr mag/cell
     absolute magnetization    =     2.44 Bohr mag/cell
[tb_dev] Currently allocated     7.63E-05 Mbytes, locked:    0 /   2
[tb_pin] Currently allocated     0.00E+00 Mbytes, locked:    0 /   0

     iteration # 12     ecut=    60.00 Ry     beta= 0.30
     Davidson diagonalization with overlap

---- Real-time Memory Report at c_bands before calling an iterative solver
          1076 MiB given to the printing process from OS
             0 MiB allocation reported by mallinfo(arena+hblkhd)
        847715 MiB available memory on the node where the printing process lives
     GPU memory used/free/total (MiB): 1666 / 79484 / 81151
------------------
     ethr =  4.83E-06,  avg # of iterations =  6.7

     total cpu time spent up to now is       39.9 secs

     total energy              =   -1489.31862695 Ry
     estimated scf accuracy    <       0.00411869 Ry

     total magnetization       =     2.41 Bohr mag/cell
     absolute magnetization    =     2.44 Bohr mag/cell
[tb_dev] Currently allocated     7.63E-05 Mbytes, locked:    0 /   2
[tb_pin] Currently allocated     0.00E+00 Mbytes, locked:    0 /   0

     iteration # 13     ecut=    60.00 Ry     beta= 0.30
     Davidson diagonalization with overlap

---- Real-time Memory Report at c_bands before calling an iterative solver
          1076 MiB given to the printing process from OS
             0 MiB allocation reported by mallinfo(arena+hblkhd)
        847621 MiB available memory on the node where the printing process lives
     GPU memory used/free/total (MiB): 1666 / 79484 / 81151
------------------
     ethr =  4.29E-06,  avg # of iterations =  1.9

     total cpu time spent up to now is       42.2 secs

     total energy              =   -1489.31945011 Ry
     estimated scf accuracy    <       0.00189974 Ry

     total magnetization       =     2.39 Bohr mag/cell
     absolute magnetization    =     2.42 Bohr mag/cell
[tb_dev] Currently allocated     7.63E-05 Mbytes, locked:    0 /   2
[tb_pin] Currently allocated     0.00E+00 Mbytes, locked:    0 /   0

     iteration # 14     ecut=    60.00 Ry     beta= 0.30
     Davidson diagonalization with overlap

---- Real-time Memory Report at c_bands before calling an iterative solver
          1076 MiB given to the printing process from OS
             0 MiB allocation reported by mallinfo(arena+hblkhd)
        847261 MiB available memory on the node where the printing process lives
     GPU memory used/free/total (MiB): 1666 / 79484 / 81151
------------------
     ethr =  1.98E-06,  avg # of iterations =  2.1

     total cpu time spent up to now is       44.6 secs

     total energy              =   -1489.31943918 Ry
     estimated scf accuracy    <       0.00009755 Ry

     total magnetization       =     2.28 Bohr mag/cell
     absolute magnetization    =     2.32 Bohr mag/cell
[tb_dev] Currently allocated     7.63E-05 Mbytes, locked:    0 /   2
[tb_pin] Currently allocated     0.00E+00 Mbytes, locked:    0 /   0

     iteration # 15     ecut=    60.00 Ry     beta= 0.30
     Davidson diagonalization with overlap

---- Real-time Memory Report at c_bands before calling an iterative solver
          1077 MiB given to the printing process from OS
             0 MiB allocation reported by mallinfo(arena+hblkhd)
        847155 MiB available memory on the node where the printing process lives
     GPU memory used/free/total (MiB): 1666 / 79484 / 81151
------------------
     ethr =  1.02E-07,  avg # of iterations = 10.0

     total cpu time spent up to now is       48.4 secs

     total energy              =   -1489.31954574 Ry
     estimated scf accuracy    <       0.00006135 Ry

     total magnetization       =     2.29 Bohr mag/cell
     absolute magnetization    =     2.33 Bohr mag/cell
[tb_dev] Currently allocated     7.63E-05 Mbytes, locked:    0 /   2
[tb_pin] Currently allocated     0.00E+00 Mbytes, locked:    0 /   0

     iteration # 16     ecut=    60.00 Ry     beta= 0.30
     Davidson diagonalization with overlap

---- Real-time Memory Report at c_bands before calling an iterative solver
          1078 MiB given to the printing process from OS
             0 MiB allocation reported by mallinfo(arena+hblkhd)
        847138 MiB available memory on the node where the printing process lives
     GPU memory used/free/total (MiB): 1666 / 79484 / 81151
------------------
     c_bands:  1 eigenvalues not converged
     c_bands:  1 eigenvalues not converged
     ethr =  6.39E-08,  avg # of iterations =  2.8

     total cpu time spent up to now is       50.9 secs

     total energy              =   -1489.31955576 Ry
     estimated scf accuracy    <       0.00002640 Ry

     total magnetization       =     2.28 Bohr mag/cell
     absolute magnetization    =     2.32 Bohr mag/cell
[tb_dev] Currently allocated     7.63E-05 Mbytes, locked:    0 /   2
[tb_pin] Currently allocated     0.00E+00 Mbytes, locked:    0 /   0

     iteration # 17     ecut=    60.00 Ry     beta= 0.30
     Davidson diagonalization with overlap

---- Real-time Memory Report at c_bands before calling an iterative solver
          1078 MiB given to the printing process from OS
             0 MiB allocation reported by mallinfo(arena+hblkhd)
        847142 MiB available memory on the node where the printing process lives
     GPU memory used/free/total (MiB): 1666 / 79484 / 81151
------------------
     c_bands:  1 eigenvalues not converged
     ethr =  2.75E-08,  avg # of iterations =  4.6

     total cpu time spent up to now is       53.8 secs

     total energy              =   -1489.31956212 Ry
     estimated scf accuracy    <       0.00003008 Ry

     total magnetization       =     2.29 Bohr mag/cell
     absolute magnetization    =     2.33 Bohr mag/cell
[tb_dev] Currently allocated     7.63E-05 Mbytes, locked:    0 /   2
[tb_pin] Currently allocated     0.00E+00 Mbytes, locked:    0 /   0

     iteration # 18     ecut=    60.00 Ry     beta= 0.30
     Davidson diagonalization with overlap

---- Real-time Memory Report at c_bands before calling an iterative solver
          1078 MiB given to the printing process from OS
             0 MiB allocation reported by mallinfo(arena+hblkhd)
        847146 MiB available memory on the node where the printing process lives
     GPU memory used/free/total (MiB): 1666 / 79484 / 81151
------------------
     c_bands:  1 eigenvalues not converged
     ethr =  2.75E-08,  avg # of iterations =  1.9

     total cpu time spent up to now is       56.3 secs

     total energy              =   -1489.31956269 Ry
     estimated scf accuracy    <       0.00000635 Ry

     total magnetization       =     2.29 Bohr mag/cell
     absolute magnetization    =     2.33 Bohr mag/cell
[tb_dev] Currently allocated     7.63E-05 Mbytes, locked:    0 /   2
[tb_pin] Currently allocated     0.00E+00 Mbytes, locked:    0 /   0

     iteration # 19     ecut=    60.00 Ry     beta= 0.30
     Davidson diagonalization with overlap

---- Real-time Memory Report at c_bands before calling an iterative solver
          1078 MiB given to the printing process from OS
             0 MiB allocation reported by mallinfo(arena+hblkhd)
        847182 MiB available memory on the node where the printing process lives
     GPU memory used/free/total (MiB): 1666 / 79484 / 81151
------------------
     ethr =  6.61E-09,  avg # of iterations =  7.0

     total cpu time spent up to now is       59.6 secs

     total energy              =   -1489.31956543 Ry
     estimated scf accuracy    <       0.00000337 Ry

     total magnetization       =     2.29 Bohr mag/cell
     absolute magnetization    =     2.33 Bohr mag/cell
[tb_dev] Currently allocated     7.63E-05 Mbytes, locked:    0 /   2
[tb_pin] Currently allocated     0.00E+00 Mbytes, locked:    0 /   0

     iteration # 20     ecut=    60.00 Ry     beta= 0.30
     Davidson diagonalization with overlap

---- Real-time Memory Report at c_bands before calling an iterative solver
          1080 MiB given to the printing process from OS
             0 MiB allocation reported by mallinfo(arena+hblkhd)
        847205 MiB available memory on the node where the printing process lives
     GPU memory used/free/total (MiB): 1666 / 79484 / 81151
------------------
     ethr =  3.51E-09,  avg # of iterations =  3.6

     total cpu time spent up to now is       62.3 secs

     total energy              =   -1489.31956612 Ry
     estimated scf accuracy    <       0.00000021 Ry

     total magnetization       =     2.29 Bohr mag/cell
     absolute magnetization    =     2.33 Bohr mag/cell
[tb_dev] Currently allocated     7.63E-05 Mbytes, locked:    0 /   2
[tb_pin] Currently allocated     0.00E+00 Mbytes, locked:    0 /   0

     iteration # 21     ecut=    60.00 Ry     beta= 0.30
     Davidson diagonalization with overlap

---- Real-time Memory Report at c_bands before calling an iterative solver
          1080 MiB given to the printing process from OS
             0 MiB allocation reported by mallinfo(arena+hblkhd)
        847208 MiB available memory on the node where the printing process lives
     GPU memory used/free/total (MiB): 1666 / 79484 / 81151
------------------
     ethr =  2.20E-10,  avg # of iterations = 11.1

     total cpu time spent up to now is       66.4 secs

     total energy              =   -1489.31956640 Ry
     estimated scf accuracy    <       0.00000020 Ry

     total magnetization       =     2.29 Bohr mag/cell
     absolute magnetization    =     2.33 Bohr mag/cell
[tb_dev] Currently allocated     7.63E-05 Mbytes, locked:    0 /   2
[tb_pin] Currently allocated     0.00E+00 Mbytes, locked:    0 /   0

     iteration # 22     ecut=    60.00 Ry     beta= 0.30
     Davidson diagonalization with overlap

---- Real-time Memory Report at c_bands before calling an iterative solver
          1080 MiB given to the printing process from OS
             0 MiB allocation reported by mallinfo(arena+hblkhd)
        847209 MiB available memory on the node where the printing process lives
     GPU memory used/free/total (MiB): 1666 / 79484 / 81151
------------------
     ethr =  2.12E-10,  avg # of iterations =  1.8

     total cpu time spent up to now is       68.8 secs

     total energy              =   -1489.31956645 Ry
     estimated scf accuracy    <       0.00000009 Ry

     total magnetization       =     2.29 Bohr mag/cell
     absolute magnetization    =     2.33 Bohr mag/cell
[tb_dev] Currently allocated     7.63E-05 Mbytes, locked:    0 /   2
[tb_pin] Currently allocated     0.00E+00 Mbytes, locked:    0 /   0

     iteration # 23     ecut=    60.00 Ry     beta= 0.30
     Davidson diagonalization with overlap

---- Real-time Memory Report at c_bands before calling an iterative solver
          1080 MiB given to the printing process from OS
             0 MiB allocation reported by mallinfo(arena+hblkhd)
        847502 MiB available memory on the node where the printing process lives
     GPU memory used/free/total (MiB): 1666 / 79484 / 81151
------------------
     ethr =  9.48E-11,  avg # of iterations =  3.1

     total cpu time spent up to now is       71.6 secs

     total energy              =   -1489.31956648 Ry
     estimated scf accuracy    <       0.00000004 Ry

     total magnetization       =     2.29 Bohr mag/cell
     absolute magnetization    =     2.33 Bohr mag/cell
[tb_dev] Currently allocated     7.63E-05 Mbytes, locked:    0 /   2
[tb_pin] Currently allocated     0.00E+00 Mbytes, locked:    0 /   0

     iteration # 24     ecut=    60.00 Ry     beta= 0.30
     Davidson diagonalization with overlap

---- Real-time Memory Report at c_bands before calling an iterative solver
          1080 MiB given to the printing process from OS
             0 MiB allocation reported by mallinfo(arena+hblkhd)
        847307 MiB available memory on the node where the printing process lives
     GPU memory used/free/total (MiB): 1666 / 79484 / 81151
------------------
     ethr =  4.20E-11,  avg # of iterations =  2.9

     total cpu time spent up to now is       74.2 secs

     total energy              =   -1489.31956650 Ry
     estimated scf accuracy    <       0.00000001 Ry

     total magnetization       =     2.29 Bohr mag/cell
     absolute magnetization    =     2.33 Bohr mag/cell
[tb_dev] Currently allocated     7.63E-05 Mbytes, locked:    0 /   2
[tb_pin] Currently allocated     0.00E+00 Mbytes, locked:    0 /   0

     iteration # 25     ecut=    60.00 Ry     beta= 0.30
     Davidson diagonalization with overlap

---- Real-time Memory Report at c_bands before calling an iterative solver
          1080 MiB given to the printing process from OS
             0 MiB allocation reported by mallinfo(arena+hblkhd)
        846798 MiB available memory on the node where the printing process lives
     GPU memory used/free/total (MiB): 1666 / 79484 / 81151
------------------
     ethr =  1.34E-11,  avg # of iterations =  7.0

     total cpu time spent up to now is       77.7 secs

     total energy              =   -1489.31956650 Ry
     estimated scf accuracy    <       0.00000004 Ry

     total magnetization       =     2.29 Bohr mag/cell
     absolute magnetization    =     2.33 Bohr mag/cell
[tb_dev] Currently allocated     7.63E-05 Mbytes, locked:    0 /   2
[tb_pin] Currently allocated     0.00E+00 Mbytes, locked:    0 /   0

     iteration # 26     ecut=    60.00 Ry     beta= 0.30
     Davidson diagonalization with overlap

---- Real-time Memory Report at c_bands before calling an iterative solver
          1080 MiB given to the printing process from OS
             0 MiB allocation reported by mallinfo(arena+hblkhd)
        846780 MiB available memory on the node where the printing process lives
     GPU memory used/free/total (MiB): 1666 / 79484 / 81151
------------------
     ethr =  1.34E-11,  avg # of iterations =  5.4
 
     Magnetic moment per site  (integrated on atomic sphere of radius R)
     atom   1 (R=0.159)  charge= 14.0978  magn=  0.5920
     atom   2 (R=0.159)  charge= 14.0978  magn=  0.5920
     atom   3 (R=0.159)  charge= 14.0978  magn=  0.5920
     atom   4 (R=0.159)  charge=  5.2451  magn=  0.0380
     atom   5 (R=0.159)  charge=  5.2192  magn=  0.0670
     atom   6 (R=0.159)  charge=  5.2192  magn=  0.0670
     atom   7 (R=0.159)  charge=  5.2259  magn=  0.0564
     atom   8 (R=0.159)  charge=  5.2259  magn=  0.0564
     atom   9 (R=0.159)  charge=  5.2259  magn=  0.0564
     atom  10 (R=0.205)  charge=  7.9413  magn=  0.0016

     total cpu time spent up to now is       80.9 secs

     End of self-consistent calculation

 ------ SPIN UP ------------


          k = 0.0000 0.0000 0.0000 (  7923 PWs)   bands (ev):

   -91.2798 -91.2742 -91.2742 -54.5286 -54.5227 -54.5227 -54.5173 -54.5025
   -54.4999 -54.4999 -54.4781 -54.4781 -47.5002 -19.4319 -19.4319 -19.3470
   -14.7721 -13.1472 -13.0918 -13.0918 -13.0543 -12.8630  -1.0921  -0.8797
    -0.8441  -0.8441  -0.8107  -0.5756  -0.5756  -0.4366  -0.4366   1.0569
     1.1533   1.1533   1.2172   1.5324   1.5324   2.5120   2.9017   2.9017
     2.9409   2.9409   3.1139   3.1139   3.9760   3.9897   3.9897   3.9980
     4.1110   6.0488   6.0828   6.0828   6.1136   6.8345   6.8345   7.5727
    12.5339  13.2813  14.0101  14.0101  14.8945  14.8945  15.6974  15.8726

     occupation numbers 
     1.0000   1.0000   1.0000   1.0000   1.0000   1.0000   1.0000   1.0000
     1.0000   1.0000   1.0000   1.0000   1.0000   1.0000   1.0000   1.0000
     1.0000   1.0000   1.0000   1.0000   1.0000   1.0000   1.0000   1.0000
     1.0000   1.0000   1.0000   1.0000   1.0000   1.0000   1.0000   1.0000
     1.0000   1.0000   1.0000   1.0000   1.0000   1.0000   1.0000   1.0000
     1.0000   1.0000   1.0000   1.0000   1.0190   1.0219   1.0219   1.0238
     1.0586   0.0000   0.0000   0.0000   0.0000   0.0000   0.0000   0.0000
     0.0000   0.0000   0.0000   0.0000   0.0000   0.0000   0.0000   0.0000

          k = 0.0000 0.0000 0.2417 (  7928 PWs)   bands (ev):

   -91.2798 -91.2742 -91.2742 -54.5284 -54.5226 -54.5226 -54.5173 -54.5025
   -54.5000 -54.5000 -54.4783 -54.4783 -47.5002 -19.4319 -19.4319 -19.3474
   -14.7694 -13.1479 -13.0918 -13.0918 -13.0543 -12.8661  -1.0492  -0.8854
    -0.8456  -0.8456  -0.8123  -0.5757  -0.5757  -0.4348  -0.4348   1.0607
     1.1554   1.1554   1.2193   1.5288   1.5288   2.3542   2.9020   2.9020
     2.9408   2.9408   3.1139   3.1139   3.9738   3.9878   3.9878   3.9962
     4.1628   6.0635   6.0921   6.0921   6.1216   6.8343   6.8343   7.9435
    11.2945  13.9572  13.9572  14.3020  14.8303  14.8303  15.6394  15.8273

     occupation numbers 
     1.0000   1.0000   1.0000   1.0000   1.0000   1.0000   1.0000   1.0000
     1.0000   1.0000   1.0000   1.0000   1.0000   1.0000   1.0000   1.0000
     1.0000   1.0000   1.0000   1.0000   1.0000   1.0000   1.0000   1.0000
     1.0000   1.0000   1.0000   1.0000   1.0000   1.0000   1.0000   1.0000
     1.0000   1.0000   1.0000   1.0000   1.0000   1.0000   1.0000   1.0000
     1.0000   1.0000   1.0000   1.0000   1.0185   1.0215   1.0215   1.0234
     1.0749   0.0000   0.0000   0.0000   0.0000   0.0000   0.0000   0.0000
     0.0000   0.0000   0.0000   0.0000   0.0000   0.0000   0.0000   0.0000

          k = 0.0000 0.1925 0.0000 (  7914 PWs)   bands (ev):

   -91.2794 -91.2745 -91.2744 -54.5335 -54.5267 -54.5152 -54.5122 -54.5008
   -54.5002 -54.4999 -54.4821 -54.4790 -47.5001 -19.4321 -19.4319 -19.3470
   -14.6691 -13.2556 -13.1571 -13.0902 -13.0155 -12.8656  -1.2766  -1.0144
    -0.9705  -0.8605  -0.7317  -0.6794  -0.5069  -0.0599   0.1249   0.8135
     0.8968   0.9947   1.1133   1.8265   1.9127   2.2676   2.3677   2.7607
     2.9852   3.0515   3.3357   3.5388   3.7308   3.7479   4.0808   4.1491
     4.1591   6.0587   6.1056   6.1341   6.1849   6.5587   6.7567   7.8458
    12.6624  12.7923  13.4478  13.6370  14.3165  15.6774  15.9641  16.5464

     occupation numbers 
     1.0000   1.0000   1.0000   1.0000   1.0000   1.0000   1.0000   1.0000
     1.0000   1.0000   1.0000   1.0000   1.0000   1.0000   1.0000   1.0000
     1.0000   1.0000   1.0000   1.0000   1.0000   1.0000   1.0000   1.0000
     1.0000   1.0000   1.0000   1.0000   1.0000   1.0000   1.0000   1.0000
     1.0000   1.0000   1.0000   1.0000   1.0000   1.0000   1.0000   1.0000
     1.0000   1.0000   1.0000   1.0000   1.0006   1.0008   1.0483   1.0711
     1.0739   0.0000   0.0000   0.0000   0.0000   0.0000   0.0000   0.0000
     0.0000   0.0000   0.0000   0.0000   0.0000   0.0000   0.0000   0.0000

          k = 0.0000 0.1925 0.2417 (  7936 PWs)   bands (ev):

   -91.2794 -91.2745 -91.2744 -54.5335 -54.5267 -54.5152 -54.5122 -54.5009
   -54.5003 -54.4999 -54.4821 -54.4791 -47.5002 -19.4321 -19.4319 -19.3473
   -14.6666 -13.2552 -13.1571 -13.0911 -13.0159 -12.8684  -1.2792  -1.0156
    -0.9305  -0.8653  -0.7343  -0.6837  -0.5069  -0.0590   0.1253   0.8134
     0.8944   1.0029   1.1146   1.8309   1.9127   2.2686   2.3477   2.6451
     2.9849   3.0515   3.3356   3.5357   3.7321   3.7488   4.0759   4.1436
     4.2138   6.0744   6.1114   6.1372   6.1933   6.5334   6.7612   8.1829
    11.6393  12.6072  13.3546  14.2284  14.6868  15.6982  16.0385  16.5186

     occupation numbers 
     1.0000   1.0000   1.0000   1.0000   1.0000   1.0000   1.0000   1.0000
     1.0000   1.0000   1.0000   1.0000   1.0000   1.0000   1.0000   1.0000
     1.0000   1.0000   1.0000   1.0000   1.0000   1.0000   1.0000   1.0000
     1.0000   1.0000   1.0000   1.0000   1.0000   1.0000   1.0000   1.0000
     1.0000   1.0000   1.0000   1.0000   1.0000   1.0000   1.0000   1.0000
     1.0000   1.0000   1.0000   1.0000   1.0006   1.0008   1.0466   1.0694
     1.0832   0.0000   0.0000   0.0000   0.0000   0.0000   0.0000   0.0000
     0.0000   0.0000   0.0000   0.0000   0.0000   0.0000   0.0000   0.0000

          k = 0.0000 0.3849 0.0000 (  7930 PWs)   bands (ev):

   -91.2782 -91.2753 -91.2747 -54.5377 -54.5258 -54.5084 -54.5068 -54.5045
   -54.5011 -54.4964 -54.4877 -54.4816 -47.5002 -19.4323 -19.4321 -19.3471
   -14.3829 -13.5635 -13.2042 -13.1340 -12.9600 -12.8751  -1.6919  -0.9069
    -0.8828  -0.8271  -0.6430  -0.4714  -0.3457   0.1429   0.3925   0.6580
     0.7424   0.8478   1.2539   1.2864   1.7507   2.1021   2.4857   3.0584
     3.0922   3.4054   3.4614   3.4870   3.5145   3.8982   3.9361   4.1473
     4.2045   6.0557   6.0749   6.1003   6.1321   6.5065   6.5241   8.5660
    11.0342  12.9317  13.2743  13.7140  14.5707  14.8906  15.7363  16.6529

     occupation numbers 
     1.0000   1.0000   1.0000   1.0000   1.0000   1.0000   1.0000   1.0000
     1.0000   1.0000   1.0000   1.0000   1.0000   1.0000   1.0000   1.0000
     1.0000   1.0000   1.0000   1.0000   1.0000   1.0000   1.0000   1.0000
     1.0000   1.0000   1.0000   1.0000   1.0000   1.0000   1.0000   1.0000
     1.0000   1.0000   1.0000   1.0000   1.0000   1.0000   1.0000   1.0000
     1.0000   1.0000   1.0000   1.0000   1.0000   1.0075   1.0121   1.0705
     1.0827   0.0000   0.0000   0.0000   0.0000   0.0000   0.0000   0.0000
     0.0000   0.0000   0.0000   0.0000   0.0000   0.0000   0.0000   0.0000

          k = 0.0000 0.3849 0.2417 (  7917 PWs)   bands (ev):

   -91.2782 -91.2753 -91.2747 -54.5378 -54.5259 -54.5083 -54.5067 -54.5044
   -54.5011 -54.4963 -54.4877 -54.4816 -47.5001 -19.4323 -19.4320 -19.3472
   -14.3807 -13.5625 -13.2038 -13.1350 -12.9614 -12.8769  -1.6948  -0.9202
    -0.8891  -0.8303  -0.6100  -0.4744  -0.3456   0.1440   0.3906   0.6738
     0.7465   0.8459   1.2562   1.2912   1.7502   2.1171   2.4841   2.9909
     3.0812   3.4057   3.4639   3.4884   3.5171   3.8850   3.9315   4.1891
     4.1920   6.0114   6.0554   6.1111   6.1418   6.5104   6.5446   8.7879
    10.9992  12.5093  12.7912  13.6450  14.8889  15.5634  16.1403  16.7307

     occupation numbers 
     1.0000   1.0000   1.0000   1.0000   1.0000   1.0000   1.0000   1.0000
     1.0000   1.0000   1.0000   1.0000   1.0000   1.0000   1.0000   1.0000
     1.0000   1.0000   1.0000   1.0000   1.0000   1.0000   1.0000   1.0000
     1.0000   1.0000   1.0000   1.0000   1.0000   1.0000   1.0000   1.0000
     1.0000   1.0000   1.0000   1.0000   1.0000   1.0000   1.0000   1.0000
     1.0000   1.0000   1.0000   1.0000   1.0000   1.0063   1.0115   1.0807
     1.0811   0.0000   0.0000   0.0000   0.0000   0.0000   0.0000   0.0000
     0.0000   0.0000   0.0000   0.0000   0.0000   0.0000   0.0000   0.0000

          k = 0.0000-0.5774 0.0000 (  7928 PWs)   bands (ev):

   -91.2767 -91.2767 -91.2748 -54.5395 -54.5197 -54.5127 -54.5053 -54.5040
   -54.5015 -54.4972 -54.4858 -54.4843 -47.5001 -19.4324 -19.4322 -19.3470
   -14.0039 -13.9540 -13.2203 -13.1588 -12.9292 -12.8869  -1.8434  -0.9625
    -0.9322  -0.4617  -0.4472  -0.2073  -0.1462  -0.0738   0.0672   0.5852
     0.6114   0.7748   1.1796   1.1981   1.6420   2.1955   2.9723   3.0077
     3.0863   3.3549   3.4238   3.4359   3.7901   3.8978   3.9338   4.0983
     4.1331   5.9157   5.9424   6.1129   6.2337   6.2795   6.7103   9.4569
     9.8251  12.7514  13.4313  13.8407  14.1933  15.4382  15.7380  15.8187

     occupation numbers 
     1.0000   1.0000   1.0000   1.0000   1.0000   1.0000   1.0000   1.0000
     1.0000   1.0000   1.0000   1.0000   1.0000   1.0000   1.0000   1.0000
     1.0000   1.0000   1.0000   1.0000   1.0000   1.0000   1.0000   1.0000
     1.0000   1.0000   1.0000   1.0000   1.0000   1.0000   1.0000   1.0000
     1.0000   1.0000   1.0000   1.0000   1.0000   1.0000   1.0000   1.0000
     1.0000   1.0000   1.0000   1.0000   1.0015   1.0075   1.0118   1.0543
     1.0661   0.0000   0.0000   0.0000   0.0000   0.0000   0.0000   0.0000
     0.0000   0.0000   0.0000   0.0000   0.0000   0.0000   0.0000   0.0000

          k = 0.0000-0.5774 0.2417 (  7914 PWs)   bands (ev):

   -91.2767 -91.2767 -91.2748 -54.5394 -54.5198 -54.5128 -54.5053 -54.5039
   -54.5015 -54.4972 -54.4857 -54.4842 -47.5001 -19.4325 -19.4320 -19.3471
   -14.0009 -13.9537 -13.2198 -13.1598 -12.9320 -12.8874  -1.8464  -0.9792
    -0.9412  -0.4565  -0.4453  -0.2104  -0.1348  -0.0654   0.0672   0.6039
     0.6244   0.7765   1.1793   1.1976   1.6422   2.2163   2.9502   2.9930
     3.0841   3.3550   3.4249   3.4374   3.7871   3.9160   3.9474   4.0756
     4.1153   5.8616   5.9013   6.1128   6.2674   6.3040   6.7101   9.5423
     9.9062  12.5862  13.3497  13.5573  13.8276  15.7884  16.4406  16.5932

     occupation numbers 
     1.0000   1.0000   1.0000   1.0000   1.0000   1.0000   1.0000   1.0000
     1.0000   1.0000   1.0000   1.0000   1.0000   1.0000   1.0000   1.0000
     1.0000   1.0000   1.0000   1.0000   1.0000   1.0000   1.0000   1.0000
     1.0000   1.0000   1.0000   1.0000   1.0000   1.0000   1.0000   1.0000
     1.0000   1.0000   1.0000   1.0000   1.0000   1.0000   1.0000   1.0000
     1.0000   1.0000   1.0000   1.0000   1.0015   1.0095   1.0138   1.0465
     1.0601   0.0000   0.0000   0.0000   0.0000   0.0000   0.0000   0.0000
     0.0000   0.0000   0.0000   0.0000   0.0000   0.0000   0.0000   0.0000

          k = 0.1667 0.2887 0.0000 (  7899 PWs)   bands (ev):

   -91.2786 -91.2748 -91.2748 -54.5352 -54.5289 -54.5090 -54.5083 -54.5031
   -54.5007 -54.4967 -54.4871 -54.4805 -47.5001 -19.4322 -19.4319 -19.3469
   -14.4746 -13.3840 -13.3373 -13.0421 -12.9930 -12.8723  -1.3691  -1.3385
    -0.8493  -0.7347  -0.6617  -0.6389  -0.3798   0.2718   0.2872   0.7508
     0.8021   0.9469   0.9925   1.4284   2.0811   2.1436   2.2049   2.9415
     3.2083   3.2143   3.4411   3.5532   3.5555   3.7715   4.0932   4.1010
     4.1734   6.0337   6.0728   6.1163   6.2941   6.3220   6.6848   8.3305
    11.8481  12.0886  13.1295  14.2729  15.0873  15.1826  15.6827  15.8027

     occupation numbers 
     1.0000   1.0000   1.0000   1.0000   1.0000   1.0000   1.0000   1.0000
     1.0000   1.0000   1.0000   1.0000   1.0000   1.0000   1.0000   1.0000
     1.0000   1.0000   1.0000   1.0000   1.0000   1.0000   1.0000   1.0000
     1.0000   1.0000   1.0000   1.0000   1.0000   1.0000   1.0000   1.0000
     1.0000   1.0000   1.0000   1.0000   1.0000   1.0000   1.0000   1.0000
     1.0000   1.0000   1.0000   1.0000   1.0000   1.0011   1.0525   1.0552
     1.0776   0.0000   0.0000   0.0000   0.0000   0.0000   0.0000   0.0000
     0.0000   0.0000   0.0000   0.0000   0.0000   0.0000   0.0000   0.0000

          k = 0.1667 0.2887 0.2417 (  7926 PWs)   bands (ev):

   -91.2786 -91.2748 -91.2748 -54.5353 -54.5289 -54.5089 -54.5084 -54.5032
   -54.5008 -54.4968 -54.4871 -54.4805 -47.5002 -19.4322 -19.4321 -19.3472
   -14.4722 -13.3833 -13.3372 -13.0436 -12.9931 -12.8744  -1.3739  -1.3401
    -0.8626  -0.6975  -0.6664  -0.6420  -0.3798   0.2700   0.2855   0.7609
     0.8085   0.9466   0.9928   1.4342   2.0812   2.1534   2.2109   2.8582
     3.2076   3.2140   3.4199   3.5544   3.5568   3.7716   4.0875   4.0966
     4.2257   6.0145   6.0658   6.0717   6.3044   6.3297   6.6847   8.6366
    11.8114  12.0616  12.2020  14.9816  15.1763  15.3852  15.5322  15.6804

     occupation numbers 
     1.0000   1.0000   1.0000   1.0000   1.0000   1.0000   1.0000   1.0000
     1.0000   1.0000   1.0000   1.0000   1.0000   1.0000   1.0000   1.0000
     1.0000   1.0000   1.0000   1.0000   1.0000   1.0000   1.0000   1.0000
     1.0000   1.0000   1.0000   1.0000   1.0000   1.0000   1.0000   1.0000
     1.0000   1.0000   1.0000   1.0000   1.0000   1.0000   1.0000   1.0000
     1.0000   1.0000   1.0000   1.0000   1.0000   1.0011   1.0506   1.0537
     1.0832   0.0000   0.0000   0.0000   0.0000   0.0000   0.0000   0.0000
     0.0000   0.0000   0.0000   0.0000   0.0000   0.0000   0.0000   0.0000

          k = 0.1667 0.4811 0.0000 (  7898 PWs)   bands (ev):

   -91.2772 -91.2758 -91.2751 -54.5359 -54.5252 -54.5119 -54.5055 -54.5039
   -54.5009 -54.4974 -54.4862 -54.4827 -47.5001 -19.4323 -19.4320 -19.3469
   -14.1311 -13.7212 -13.4312 -13.0372 -12.9444 -12.8891  -1.6234  -1.1412
    -0.9878  -0.5462  -0.4170  -0.3854  -0.1958   0.0745   0.1216   0.5165
     0.5984   0.7397   1.2206   1.4756   1.6336   2.2857   2.6698   3.0053
     3.2479   3.4437   3.4614   3.4908   3.6538   3.8744   3.9039   4.0621
     4.0857   5.7798   5.8903   6.0256   6.4129   6.5518   6.6298   9.1829
    10.4435  11.5837  13.6536  14.4669  14.8943  15.1486  15.2974  16.3285

     occupation numbers 
     1.0000   1.0000   1.0000   1.0000   1.0000   1.0000   1.0000   1.0000
     1.0000   1.0000   1.0000   1.0000   1.0000   1.0000   1.0000   1.0000
     1.0000   1.0000   1.0000   1.0000   1.0000   1.0000   1.0000   1.0000
     1.0000   1.0000   1.0000   1.0000   1.0000   1.0000   1.0000   1.0000
     1.0000   1.0000   1.0000   1.0000   1.0000   1.0000   1.0000   1.0000
     1.0000   1.0000   1.0000   1.0000   1.0001   1.0055   1.0081   1.0420
     1.0499   0.0000   0.0000   0.0000   0.0000   0.0000   0.0000   0.0000
     0.0000   0.0000   0.0000   0.0000   0.0000   0.0000   0.0000   0.0000

          k = 0.1667 0.4811 0.2417 (  7912 PWs)   bands (ev):

   -91.2772 -91.2759 -91.2751 -54.5359 -54.5253 -54.5119 -54.5055 -54.5039
   -54.5010 -54.4974 -54.4862 -54.4827 -47.5001 -19.4323 -19.4321 -19.3471
   -14.1292 -13.7202 -13.4309 -13.0387 -12.9457 -12.8901  -1.6274  -1.1505
    -1.0015  -0.5492  -0.4019  -0.3861  -0.1930   0.0770   0.1206   0.5357
     0.6096   0.7466   1.2209   1.4757   1.6338   2.3034   2.6721   2.9842
     3.2464   3.4430   3.4603   3.4765   3.6574   3.8730   3.8969   4.0690
     4.1043   5.7087   5.8499   6.0061   6.4244   6.5585   6.6314   9.3847
    10.5157  11.6122  13.0790  14.2149  14.7179  15.0229  16.1644  16.6608

     occupation numbers 
     1.0000   1.0000   1.0000   1.0000   1.0000   1.0000   1.0000   1.0000
     1.0000   1.0000   1.0000   1.0000   1.0000   1.0000   1.0000   1.0000
     1.0000   1.0000   1.0000   1.0000   1.0000   1.0000   1.0000   1.0000
     1.0000   1.0000   1.0000   1.0000   1.0000   1.0000   1.0000   1.0000
     1.0000   1.0000   1.0000   1.0000   1.0000   1.0000   1.0000   1.0000
     1.0000   1.0000   1.0000   1.0000   1.0001   1.0054   1.0074   1.0443
     1.0563   0.0000   0.0000   0.0000   0.0000   0.0000   0.0000   0.0000
     0.0000   0.0000   0.0000   0.0000   0.0000   0.0000   0.0000   0.0000

          k = 0.3333 0.5774 0.0000 (  7920 PWs)   bands (ev):

   -91.2761 -91.2761 -91.2761 -54.5287 -54.5287 -54.5184 -54.5041 -54.5041
   -54.5000 -54.4983 -54.4838 -54.4838 -47.5001 -19.4323 -19.4323 -19.3470
   -13.8286 -13.7569 -13.7569 -12.9900 -12.9201 -12.9201  -1.2886  -1.2314
    -1.2314  -0.4079  -0.3902  -0.3902  -0.0335  -0.0335  -0.0107   0.3670
     0.4939   0.4939   1.5703   1.5703   1.5976   2.6295   2.6950   2.6950
     3.4254   3.4505   3.4505   3.7003   3.7037   3.7037   3.8997   3.9408
     3.9408   5.7593   5.8297   5.8297   6.6253   6.6253   6.6553   9.8915
    10.3778  10.3778  13.9313  14.4535  14.4535  15.9702  16.0454  16.0454

     occupation numbers 
     1.0000   1.0000   1.0000   1.0000   1.0000   1.0000   1.0000   1.0000
     1.0000   1.0000   1.0000   1.0000   1.0000   1.0000   1.0000   1.0000
     1.0000   1.0000   1.0000   1.0000   1.0000   1.0000   1.0000   1.0000
     1.0000   1.0000   1.0000   1.0000   1.0000   1.0000   1.0000   1.0000
     1.0000   1.0000   1.0000   1.0000   1.0000   1.0000   1.0000   1.0000
     1.0000   1.0000   1.0000   1.0003   1.0003   1.0003   1.0077   1.0128
     1.0128   0.0000   0.0000   0.0000   0.0000   0.0000   0.0000   0.0000
     0.0000   0.0000   0.0000   0.0000   0.0000   0.0000   0.0000   0.0000

          k = 0.3333 0.5774 0.2417 (  7899 PWs)   bands (ev):

   -91.2761 -91.2761 -91.2761 -54.5287 -54.5287 -54.5184 -54.5041 -54.5041
   -54.4999 -54.4983 -54.4837 -54.4837 -47.5001 -19.4322 -19.4322 -19.3470
   -13.8256 -13.7566 -13.7566 -12.9931 -12.9204 -12.9204  -1.3035  -1.2370
    -1.2370  -0.4100  -0.3922  -0.3922  -0.0335  -0.0335  -0.0109   0.3968
     0.5098   0.5098   1.5702   1.5702   1.5978   2.6375   2.6991   2.6991
     3.4168   3.4451   3.4451   3.7005   3.7038   3.7038   3.9125   3.9498
     3.9498   5.6911   5.7830   5.7830   6.6253   6.6253   6.6549  10.0343
    10.4983  10.4983  13.5982  14.0999  14.0999  16.2920  16.2920  16.4310

     occupation numbers 
     1.0000   1.0000   1.0000   1.0000   1.0000   1.0000   1.0000   1.0000
     1.0000   1.0000   1.0000   1.0000   1.0000   1.0000   1.0000   1.0000
     1.0000   1.0000   1.0000   1.0000   1.0000   1.0000   1.0000   1.0000
     1.0000   1.0000   1.0000   1.0000   1.0000   1.0000   1.0000   1.0000
     1.0000   1.0000   1.0000   1.0000   1.0000   1.0000   1.0000   1.0000
     1.0000   1.0000   1.0000   1.0003   1.0003   1.0003   1.0091   1.0142
     1.0142   0.0000   0.0000   0.0000   0.0000   0.0000   0.0000   0.0000
     0.0000   0.0000   0.0000   0.0000   0.0000   0.0000   0.0000   0.0000

          k =-0.1667-0.2887 0.2417 (  7926 PWs)   bands (ev):

   -91.2786 -91.2748 -91.2748 -54.5353 -54.5289 -54.5089 -54.5084 -54.5032
   -54.5008 -54.4968 -54.4871 -54.4805 -47.5002 -19.4322 -19.4321 -19.3472
   -14.4722 -13.3827 -13.3371 -13.0443 -12.9932 -12.8744  -1.3740  -1.3407
    -0.8524  -0.7072  -0.6655  -0.6414  -0.3798   0.2702   0.2861   0.7597
     0.8065   0.9515   0.9966   1.4312   2.0812   2.1449   2.2064   2.8585
     3.2091   3.2152   3.4225   3.5550   3.5572   3.7715   4.0832   4.0935
     4.2143   6.0480   6.0834   6.1092   6.2963   6.3229   6.6848   8.5484
    11.7199  11.9618  12.2951  15.0707  15.2086  15.4187  15.8662  16.0582

     occupation numbers 
     1.0000   1.0000   1.0000   1.0000   1.0000   1.0000   1.0000   1.0000
     1.0000   1.0000   1.0000   1.0000   1.0000   1.0000   1.0000   1.0000
     1.0000   1.0000   1.0000   1.0000   1.0000   1.0000   1.0000   1.0000
     1.0000   1.0000   1.0000   1.0000   1.0000   1.0000   1.0000   1.0000
     1.0000   1.0000   1.0000   1.0000   1.0000   1.0000   1.0000   1.0000
     1.0000   1.0000   1.0000   1.0000   1.0000   1.0011   1.0491   1.0526
     1.0832   0.0000   0.0000   0.0000   0.0000   0.0000   0.0000   0.0000
     0.0000   0.0000   0.0000   0.0000   0.0000   0.0000   0.0000   0.0000

          k =-0.1667-0.4811 0.2417 (  7912 PWs)   bands (ev):

   -91.2772 -91.2759 -91.2751 -54.5359 -54.5253 -54.5119 -54.5054 -54.5040
   -54.5010 -54.4974 -54.4862 -54.4827 -47.5001 -19.4323 -19.4321 -19.3471
   -14.1290 -13.7199 -13.4304 -13.0395 -12.9459 -12.8901  -1.6274  -1.1488
    -0.9967  -0.5504  -0.4054  -0.3882  -0.1937   0.0745   0.1204   0.5430
     0.6125   0.7520   1.2201   1.4757   1.6336   2.2900   2.6618   2.9743
     3.2500   3.4461   3.4609   3.4820   3.6586   3.8676   3.9019   4.0541
     4.0821   5.7784   5.8953   6.0330   6.4143   6.5542   6.6301   9.2555
    10.3955  11.4312  13.2782  14.4797  14.9100  15.5484  16.1229  16.6378

     occupation numbers 
     1.0000   1.0000   1.0000   1.0000   1.0000   1.0000   1.0000   1.0000
     1.0000   1.0000   1.0000   1.0000   1.0000   1.0000   1.0000   1.0000
     1.0000   1.0000   1.0000   1.0000   1.0000   1.0000   1.0000   1.0000
     1.0000   1.0000   1.0000   1.0000   1.0000   1.0000   1.0000   1.0000
     1.0000   1.0000   1.0000   1.0000   1.0000   1.0000   1.0000   1.0000
     1.0000   1.0000   1.0000   1.0000   1.0001   1.0050   1.0079   1.0394
     1.0487   0.0000   0.0000   0.0000   0.0000   0.0000   0.0000   0.0000
     0.0000   0.0000   0.0000   0.0000   0.0000   0.0000   0.0000   0.0000

          k =-0.3333-0.5774 0.2417 (  7899 PWs)   bands (ev):

   -91.2761 -91.2761 -91.2761 -54.5287 -54.5287 -54.5184 -54.5041 -54.5041
   -54.4999 -54.4983 -54.4837 -54.4837 -47.5001 -19.4322 -19.4322 -19.3471
   -13.8247 -13.7565 -13.7565 -12.9942 -12.9205 -12.9205  -1.2993  -1.2360
    -1.2360  -0.4162  -0.3946  -0.3946  -0.0336  -0.0336  -0.0107   0.4061
     0.5149   0.5149   1.5703   1.5703   1.5975   2.6160   2.6877   2.6877
     3.4255   3.4506   3.4506   3.7005   3.7037   3.7037   3.8888   3.9333
     3.9333   5.7691   5.8360   5.8360   6.6253   6.6253   6.6552   9.8343
    10.3188  10.3188  13.9580  14.5126  14.5126  16.2558  16.2558  16.4921

     occupation numbers 
     1.0000   1.0000   1.0000   1.0000   1.0000   1.0000   1.0000   1.0000
     1.0000   1.0000   1.0000   1.0000   1.0000   1.0000   1.0000   1.0000
     1.0000   1.0000   1.0000   1.0000   1.0000   1.0000   1.0000   1.0000
     1.0000   1.0000   1.0000   1.0000   1.0000   1.0000   1.0000   1.0000
     1.0000   1.0000   1.0000   1.0000   1.0000   1.0000   1.0000   1.0000
     1.0000   1.0000   1.0000   1.0003   1.0003   1.0003   1.0067   1.0117
     1.0117   0.0000   0.0000   0.0000   0.0000   0.0000   0.0000   0.0000
     0.0000   0.0000   0.0000   0.0000   0.0000   0.0000   0.0000   0.0000

 ------ SPIN DOWN ----------


          k = 0.0000 0.0000 0.0000 (  7923 PWs)   bands (ev):

   -90.5550 -90.5492 -90.5492 -53.8733 -53.8717 -53.8717 -53.8699 -53.8314
   -53.8314 -53.6878 -53.6783 -53.6783 -47.4989 -19.4306 -19.4306 -19.3448
   -14.6791 -13.0647 -12.9898 -12.9898 -12.9346 -12.7566  -0.7872  -0.7408
    -0.6999  -0.6999  -0.6587  -0.3707  -0.3707  -0.3280  -0.3280   1.2979
     1.4147   1.4147   1.5008   1.6017   1.6017   2.6734   3.1810   3.1810
     3.5250   3.5250   3.9223   3.9223   4.5523   4.5757   4.5757   4.5951
     4.9722   6.3589   6.3951   6.3951   6.4293   7.1447   7.1447   7.5897
    12.6071  13.3939  14.0119  14.0119  14.8895  14.8895  15.7168  15.8719

     occupation numbers 
     1.0000   1.0000   1.0000   1.0000   1.0000   1.0000   1.0000   1.0000
     1.0000   1.0000   1.0000   1.0000   1.0000   1.0000   1.0000   1.0000
     1.0000   1.0000   1.0000   1.0000   1.0000   1.0000   1.0000   1.0000
     1.0000   1.0000   1.0000   1.0000   1.0000   1.0000   1.0000   1.0000
     1.0000   1.0000   1.0000   1.0000   1.0000   1.0000   1.0000   1.0000
     1.0000   1.0000   1.0102   1.0102   0.5374   0.4738   0.4738   0.4232
     0.0075   0.0000   0.0000   0.0000   0.0000   0.0000   0.0000   0.0000
     0.0000   0.0000   0.0000   0.0000   0.0000   0.0000   0.0000   0.0000

          k = 0.0000 0.0000 0.2417 (  7928 PWs)   bands (ev):

   -90.5550 -90.5492 -90.5492 -53.8732 -53.8715 -53.8715 -53.8698 -53.8317
   -53.8317 -53.6880 -53.6783 -53.6783 -47.4989 -19.4305 -19.4305 -19.3451
   -14.6764 -13.0656 -12.9898 -12.9898 -12.9346 -12.7595  -0.7525  -0.7319
    -0.7014  -0.7014  -0.6604  -0.3700  -0.3700  -0.3269  -0.3269   1.3010
     1.4170   1.4170   1.5029   1.5979   1.5979   2.5067   3.1809   3.1809
     3.5249   3.5249   3.9230   3.9230   4.5501   4.5740   4.5740   4.5934
     5.0296   6.3740   6.4049   6.4049   6.4377   7.1444   7.1444   7.9622
    11.3696  13.9534  13.9534  14.3951  14.8216  14.8216  15.6599  15.8237

     occupation numbers 
     1.0000   1.0000   1.0000   1.0000   1.0000   1.0000   1.0000   1.0000
     1.0000   1.0000   1.0000   1.0000   1.0000   1.0000   1.0000   1.0000
     1.0000   1.0000   1.0000   1.0000   1.0000   1.0000   1.0000   1.0000
     1.0000   1.0000   1.0000   1.0000   1.0000   1.0000   1.0000   1.0000
     1.0000   1.0000   1.0000   1.0000   1.0000   1.0000   1.0000   1.0000
     1.0000   1.0000   1.0103   1.0103   0.5435   0.4786   0.4786   0.4275
     0.0029   0.0000   0.0000   0.0000   0.0000   0.0000   0.0000   0.0000
     0.0000   0.0000   0.0000   0.0000   0.0000   0.0000   0.0000   0.0000

          k = 0.0000 0.1925 0.0000 (  7914 PWs)   bands (ev):

   -90.5545 -90.5495 -90.5493 -53.8808 -53.8779 -53.8617 -53.8596 -53.8366
   -53.8328 -53.6872 -53.6787 -53.6785 -47.4988 -19.4307 -19.4306 -19.3447
   -14.5759 -13.1633 -13.0550 -12.9908 -12.9039 -12.7589  -1.1403  -0.8885
    -0.7050  -0.6638  -0.5922  -0.4646  -0.2865   0.0465   0.2419   0.9919
     1.0779   1.2632   1.3908   1.9753   2.0782   2.4812   2.6301   2.9308
     3.8220   3.9248   3.9747   4.0283   4.3435   4.3656   4.6355   4.7000
     4.9914   6.3673   6.4347   6.4561   6.4890   6.8723   7.0601   7.8633
    12.6754  12.8512  13.4454  13.7480  14.3195  15.6817  15.9850  16.4579

     occupation numbers 
     1.0000   1.0000   1.0000   1.0000   1.0000   1.0000   1.0000   1.0000
     1.0000   1.0000   1.0000   1.0000   1.0000   1.0000   1.0000   1.0000
     1.0000   1.0000   1.0000   1.0000   1.0000   1.0000   1.0000   1.0000
     1.0000   1.0000   1.0000   1.0000   1.0000   1.0000   1.0000   1.0000
     1.0000   1.0000   1.0000   1.0000   1.0000   1.0000   1.0000   1.0000
     1.0026   1.0106   1.0187   1.0317   1.0129   0.9821   0.3248   0.1966
     0.0055   0.0000   0.0000   0.0000   0.0000   0.0000   0.0000   0.0000
     0.0000   0.0000   0.0000   0.0000   0.0000   0.0000   0.0000   0.0000

          k = 0.0000 0.1925 0.2417 (  7936 PWs)   bands (ev):

   -90.5545 -90.5495 -90.5494 -53.8809 -53.8779 -53.8617 -53.8596 -53.8366
   -53.8328 -53.6872 -53.6788 -53.6786 -47.4989 -19.4307 -19.4306 -19.3451
   -14.5734 -13.1630 -13.0551 -12.9917 -12.9042 -12.7614  -1.1429  -0.8898
    -0.7098  -0.6186  -0.5942  -0.4696  -0.2866   0.0474   0.2421   0.9910
     1.0749   1.2720   1.3922   1.9804   2.0784   2.4834   2.5903   2.8293
     3.8224   3.9200   3.9747   4.0284   4.3448   4.3664   4.6308   4.6943
     5.0492   6.3840   6.4394   6.4609   6.4966   6.8372   7.0666   8.2110
    11.7110  12.6050  13.3478  14.2290  14.7816  15.6955  16.0737  16.6096

     occupation numbers 
     1.0000   1.0000   1.0000   1.0000   1.0000   1.0000   1.0000   1.0000
     1.0000   1.0000   1.0000   1.0000   1.0000   1.0000   1.0000   1.0000
     1.0000   1.0000   1.0000   1.0000   1.0000   1.0000   1.0000   1.0000
     1.0000   1.0000   1.0000   1.0000   1.0000   1.0000   1.0000   1.0000
     1.0000   1.0000   1.0000   1.0000   1.0000   1.0000   1.0000   1.0000
     1.0026   1.0100   1.0187   1.0317   1.0112   0.9808   0.3356   0.2064
     0.0021   0.0000   0.0000   0.0000   0.0000   0.0000   0.0000   0.0000
     0.0000   0.0000   0.0000   0.0000   0.0000   0.0000   0.0000   0.0000

          k = 0.0000 0.3849 0.0000 (  7930 PWs)   bands (ev):

   -90.5533 -90.5504 -90.5497 -53.8868 -53.8756 -53.8519 -53.8504 -53.8482
   -53.8365 -53.6853 -53.6802 -53.6791 -47.4988 -19.4310 -19.4307 -19.3449
   -14.2891 -13.4668 -13.1058 -13.0327 -12.8540 -12.7664  -1.5512  -0.7380
    -0.7209  -0.6507  -0.3534  -0.3423  -0.1391   0.2892   0.5570   0.9276
     1.0149   1.0248   1.4087   1.4648   1.9896   2.2621   2.6662   3.2272
     3.9876   3.9957   4.1354   4.1507   4.3277   4.3632   4.5033   4.7123
     4.9636   6.3755   6.3961   6.4186   6.4918   6.7899   6.8155   8.5810
    11.0363  12.9280  13.3345  13.7191  14.6818  14.9279  15.7759  16.7532

     occupation numbers 
     1.0000   1.0000   1.0000   1.0000   1.0000   1.0000   1.0000   1.0000
     1.0000   1.0000   1.0000   1.0000   1.0000   1.0000   1.0000   1.0000
     1.0000   1.0000   1.0000   1.0000   1.0000   1.0000   1.0000   1.0000
     1.0000   1.0000   1.0000   1.0000   1.0000   1.0000   1.0000   1.0000
     1.0000   1.0000   1.0000   1.0000   1.0000   1.0000   1.0000   1.0000
     1.0214   1.0233   1.0668   1.0716   1.0312   0.9856   0.6728   0.1766
     0.0086   0.0000   0.0000   0.0000   0.0000   0.0000   0.0000   0.0000
     0.0000   0.0000   0.0000   0.0000   0.0000   0.0000   0.0000   0.0000

          k = 0.0000 0.3849 0.2417 (  7917 PWs)   bands (ev):

   -90.5533 -90.5504 -90.5497 -53.8869 -53.8757 -53.8518 -53.8503 -53.8482
   -53.8365 -53.6851 -53.6802 -53.6791 -47.4988 -19.4309 -19.4307 -19.3450
   -14.2869 -13.4658 -13.1056 -13.0338 -12.8554 -12.7680  -1.5540  -0.7493
    -0.7255  -0.6591  -0.3520  -0.3103  -0.1384   0.2900   0.5552   0.9395
     1.0205   1.0282   1.4103   1.4735   1.9888   2.2778   2.6632   3.1462
     3.9877   3.9940   4.1366   4.1518   4.3148   4.3645   4.5000   4.7003
     5.0043   6.3215   6.3752   6.4346   6.4928   6.7937   6.8414   8.8159
    11.0032  12.5726  12.7845  13.6494  14.9330  15.6614  16.1885  16.8072

     occupation numbers 
     1.0000   1.0000   1.0000   1.0000   1.0000   1.0000   1.0000   1.0000
     1.0000   1.0000   1.0000   1.0000   1.0000   1.0000   1.0000   1.0000
     1.0000   1.0000   1.0000   1.0000   1.0000   1.0000   1.0000   1.0000
     1.0000   1.0000   1.0000   1.0000   1.0000   1.0000   1.0000   1.0000
     1.0000   1.0000   1.0000   1.0000   1.0000   1.0000   1.0000   1.0000
     1.0215   1.0229   1.0672   1.0719   1.0440   0.9838   0.6817   0.1961
     0.0045   0.0000   0.0000   0.0000   0.0000   0.0000   0.0000   0.0000
     0.0000   0.0000   0.0000   0.0000   0.0000   0.0000   0.0000   0.0000

          k = 0.0000-0.5774 0.0000 (  7928 PWs)   bands (ev):

   -90.5518 -90.5518 -90.5498 -53.8891 -53.8656 -53.8638 -53.8460 -53.8431
   -53.8421 -53.6826 -53.6826 -53.6793 -47.4988 -19.4310 -19.4309 -19.3448
   -13.9169 -13.8501 -13.1225 -13.0570 -12.8273 -12.7748  -1.7007  -0.7778
    -0.7454  -0.2822  -0.2693  -0.1168   0.0801   0.1725   0.2648   0.7896
     0.8376   1.0992   1.3757   1.4068   1.7085   2.3429   3.1334   3.1814
     3.9218   4.0420   4.0572   4.0632   4.4234   4.5690   4.6090   4.7378
     4.7671   6.2394   6.2679   6.4871   6.5373   6.5712   6.9859   9.4707
     9.8260  12.7473  13.4388  13.8837  14.2464  15.4780  15.8507  15.9376

     occupation numbers 
     1.0000   1.0000   1.0000   1.0000   1.0000   1.0000   1.0000   1.0000
     1.0000   1.0000   1.0000   1.0000   1.0000   1.0000   1.0000   1.0000
     1.0000   1.0000   1.0000   1.0000   1.0000   1.0000   1.0000   1.0000
     1.0000   1.0000   1.0000   1.0000   1.0000   1.0000   1.0000   1.0000
     1.0000   1.0000   1.0000   1.0000   1.0000   1.0000   1.0000   1.0000
     1.0102   1.0357   1.0404   1.0424   0.8735   0.4921   0.3881   0.1397
     0.1046   0.0000   0.0000   0.0000   0.0000   0.0000   0.0000   0.0000
     0.0000   0.0000   0.0000   0.0000   0.0000   0.0000   0.0000   0.0000

          k = 0.0000-0.5774 0.2417 (  7914 PWs)   bands (ev):

   -90.5518 -90.5518 -90.5498 -53.8890 -53.8657 -53.8639 -53.8460 -53.8430
   -53.8420 -53.6826 -53.6826 -53.6793 -47.4988 -19.4311 -19.4307 -19.3449
   -13.9138 -13.8498 -13.1222 -13.0581 -12.8299 -12.7753  -1.7037  -0.7957
    -0.7550  -0.2789  -0.2682  -0.1223   0.0941   0.1801   0.2649   0.8166
     0.8568   1.1002   1.3755   1.4065   1.7087   2.3640   3.1069   3.1630
     3.9190   4.0420   4.0576   4.0636   4.4219   4.5473   4.5920   4.7538
     4.7794   6.1746   6.2181   6.4936   6.5694   6.5998   6.9856   9.5658
     9.9165  12.5797  13.3728  13.5905  13.8852  15.8374  16.5366  16.6994

     occupation numbers 
     1.0000   1.0000   1.0000   1.0000   1.0000   1.0000   1.0000   1.0000
     1.0000   1.0000   1.0000   1.0000   1.0000   1.0000   1.0000   1.0000
     1.0000   1.0000   1.0000   1.0000   1.0000   1.0000   1.0000   1.0000
     1.0000   1.0000   1.0000   1.0000   1.0000   1.0000   1.0000   1.0000
     1.0000   1.0000   1.0000   1.0000   1.0000   1.0000   1.0000   1.0000
     1.0098   1.0357   1.0406   1.0425   0.8768   0.5512   0.4310   0.1196
     0.0921   0.0000   0.0000   0.0000   0.0000   0.0000   0.0000   0.0000
     0.0000   0.0000   0.0000   0.0000   0.0000   0.0000   0.0000   0.0000

          k = 0.1667 0.2887 0.0000 (  7899 PWs)   bands (ev):

   -90.5537 -90.5498 -90.5498 -53.8824 -53.8807 -53.8535 -53.8520 -53.8457
   -53.8349 -53.6859 -53.6793 -53.6792 -47.4988 -19.4308 -19.4306 -19.3447
   -14.3809 -13.2940 -13.2304 -12.9486 -12.8797 -12.7645  -1.2273  -1.1930
    -0.6426  -0.5232  -0.4989  -0.4406  -0.1671   0.4207   0.4409   0.9565
     0.9959   1.1639   1.2468   1.6170   2.3078   2.3288   2.3941   3.1174
     3.9574   4.1260   4.1369   4.1847   4.1951   4.2100   4.6300   4.6419
     4.9861   6.3755   6.4212   6.4439   6.5867   6.6165   6.9795   8.3443
    11.8525  12.0846  13.1942  14.3834  15.0886  15.2052  15.7245  15.8203

     occupation numbers 
     1.0000   1.0000   1.0000   1.0000   1.0000   1.0000   1.0000   1.0000
     1.0000   1.0000   1.0000   1.0000   1.0000   1.0000   1.0000   1.0000
     1.0000   1.0000   1.0000   1.0000   1.0000   1.0000   1.0000   1.0000
     1.0000   1.0000   1.0000   1.0000   1.0000   1.0000   1.0000   1.0000
     1.0000   1.0000   1.0000   1.0000   1.0000   1.0000   1.0000   1.0000
     1.0155   1.0638   1.0673   1.0799   1.0816   1.0831   0.3375   0.3104
     0.0060   0.0000   0.0000   0.0000   0.0000   0.0000   0.0000   0.0000
     0.0000   0.0000   0.0000   0.0000   0.0000   0.0000   0.0000   0.0000

          k = 0.1667 0.2887 0.2417 (  7926 PWs)   bands (ev):

   -90.5537 -90.5498 -90.5498 -53.8825 -53.8808 -53.8536 -53.8520 -53.8456
   -53.8349 -53.6858 -53.6794 -53.6794 -47.4988 -19.4308 -19.4307 -19.3450
   -14.3786 -13.2934 -13.2303 -12.9503 -12.8799 -12.7665  -1.2321  -1.1945
    -0.6573  -0.5282  -0.5021  -0.3983  -0.1672   0.4189   0.4391   0.9626
     0.9993   1.1678   1.2504   1.6261   2.3180   2.3294   2.4007   3.0203
     3.9453   4.1245   4.1360   4.1860   4.1960   4.2100   4.6252   4.6381
     5.0381   6.3420   6.3981   6.4133   6.5964   6.6242   6.9795   8.6696
    11.8158  12.0566  12.2645  14.9873  15.2270  15.4535  15.5606  15.7245

     occupation numbers 
     1.0000   1.0000   1.0000   1.0000   1.0000   1.0000   1.0000   1.0000
     1.0000   1.0000   1.0000   1.0000   1.0000   1.0000   1.0000   1.0000
     1.0000   1.0000   1.0000   1.0000   1.0000   1.0000   1.0000   1.0000
     1.0000   1.0000   1.0000   1.0000   1.0000   1.0000   1.0000   1.0000
     1.0000   1.0000   1.0000   1.0000   1.0000   1.0000   1.0000   1.0000
     1.0135   1.0633   1.0670   1.0801   1.0817   1.0831   0.3486   0.3189
     0.0026   0.0000   0.0000   0.0000   0.0000   0.0000   0.0000   0.0000
     0.0000   0.0000   0.0000   0.0000   0.0000   0.0000   0.0000   0.0000

          k = 0.1667 0.4811 0.0000 (  7898 PWs)   bands (ev):

   -90.5523 -90.5509 -90.5501 -53.8848 -53.8743 -53.8606 -53.8464 -53.8443
   -53.8389 -53.6835 -53.6811 -53.6798 -47.4988 -19.4310 -19.4307 -19.3447
   -14.0374 -13.6244 -13.3311 -12.9416 -12.8367 -12.7786  -1.4748  -0.9707
    -0.7957  -0.4049  -0.2715  -0.1761   0.0137   0.2615   0.3064   0.7691
     0.8414   1.0542   1.3893   1.5865   1.8505   2.4553   2.8490   3.1962
     4.0170   4.0518   4.0860   4.1373   4.3965   4.4219   4.5062   4.6569
     4.8680   6.1282   6.2446   6.4043   6.6949   6.8333   6.9065   9.1925
    10.4456  11.5821  13.7062  14.5103  14.8991  15.1913  15.4104  16.4353

     occupation numbers 
     1.0000   1.0000   1.0000   1.0000   1.0000   1.0000   1.0000   1.0000
     1.0000   1.0000   1.0000   1.0000   1.0000   1.0000   1.0000   1.0000
     1.0000   1.0000   1.0000   1.0000   1.0000   1.0000   1.0000   1.0000
     1.0000   1.0000   1.0000   1.0000   1.0000   1.0000   1.0000   1.0000
     1.0000   1.0000   1.0000   1.0000   1.0000   1.0000   1.0000   1.0000
     1.0286   1.0387   1.0500   1.0675   0.9289   0.8769   0.6649   0.2781
     0.0327   0.0000   0.0000   0.0000   0.0000   0.0000   0.0000   0.0000
     0.0000   0.0000   0.0000   0.0000   0.0000   0.0000   0.0000   0.0000

          k = 0.1667 0.4811 0.2417 (  7912 PWs)   bands (ev):

   -90.5523 -90.5509 -90.5501 -53.8848 -53.8744 -53.8606 -53.8464 -53.8444
   -53.8389 -53.6835 -53.6811 -53.6799 -47.4988 -19.4310 -19.4308 -19.3449
   -14.0354 -13.6234 -13.3308 -12.9434 -12.8378 -12.7794  -1.4787  -0.9801
    -0.8102  -0.4085  -0.2771  -0.1594   0.0191   0.2628   0.3056   0.7932
     0.8589   1.0613   1.3896   1.5867   1.8508   2.4738   2.8497   3.1652
     4.0120   4.0442   4.0846   4.1371   4.3899   4.4174   4.5064   4.6604
     4.8960   6.0442   6.1979   6.3817   6.7078   6.8412   6.9083   9.4114
    10.5256  11.6125  13.1319  14.2612  14.7369  15.0566  16.2748  16.7276

     occupation numbers 
     1.0000   1.0000   1.0000   1.0000   1.0000   1.0000   1.0000   1.0000
     1.0000   1.0000   1.0000   1.0000   1.0000   1.0000   1.0000   1.0000
     1.0000   1.0000   1.0000   1.0000   1.0000   1.0000   1.0000   1.0000
     1.0000   1.0000   1.0000   1.0000   1.0000   1.0000   1.0000   1.0000
     1.0000   1.0000   1.0000   1.0000   1.0000   1.0000   1.0000   1.0000
     1.0273   1.0364   1.0495   1.0674   0.9411   0.8866   0.6641   0.2708
     0.0227   0.0000   0.0000   0.0000   0.0000   0.0000   0.0000   0.0000
     0.0000   0.0000   0.0000   0.0000   0.0000   0.0000   0.0000   0.0000

          k = 0.3333 0.5774 0.0000 (  7920 PWs)   bands (ev):

   -90.5511 -90.5511 -90.5511 -53.8755 -53.8755 -53.8729 -53.8437 -53.8411
   -53.8411 -53.6815 -53.6815 -53.6815 -47.4988 -19.4310 -19.4310 -19.3448
   -13.7478 -13.6519 -13.6519 -12.9011 -12.8077 -12.8077  -1.1206  -1.0562
    -1.0562  -0.2731  -0.2559  -0.2559   0.1579   0.1579   0.1857   0.6435
     0.8104   0.8104   1.7359   1.7359   1.7793   2.7963   2.8925   2.8925
     4.0341   4.0746   4.0746   4.2783   4.2783   4.2866   4.6577   4.6872
     4.6872   6.1326   6.2066   6.2066   6.8985   6.8985   6.9306   9.9036
    10.3750  10.3750  13.9727  14.5006  14.5006  16.0705  16.1458  16.1458

     occupation numbers 
     1.0000   1.0000   1.0000   1.0000   1.0000   1.0000   1.0000   1.0000
     1.0000   1.0000   1.0000   1.0000   1.0000   1.0000   1.0000   1.0000
     1.0000   1.0000   1.0000   1.0000   1.0000   1.0000   1.0000   1.0000
     1.0000   1.0000   1.0000   1.0000   1.0000   1.0000   1.0000   1.0000
     1.0000   1.0000   1.0000   1.0000   1.0000   1.0000   1.0000   1.0000
     1.0334   1.0461   1.0461   1.0696   1.0696   1.0650   0.2763   0.2190
     0.2190   0.0000   0.0000   0.0000   0.0000   0.0000   0.0000   0.0000
     0.0000   0.0000   0.0000   0.0000   0.0000   0.0000   0.0000   0.0000

          k = 0.3333 0.5774 0.2417 (  7899 PWs)   bands (ev):

   -90.5511 -90.5511 -90.5511 -53.8755 -53.8755 -53.8729 -53.8436 -53.8410
   -53.8410 -53.6815 -53.6815 -53.6815 -47.4988 -19.4309 -19.4309 -19.3448
   -13.7449 -13.6517 -13.6517 -12.9042 -12.8080 -12.8080  -1.1359  -1.0619
    -1.0619  -0.2764  -0.2585  -0.2585   0.1579   0.1579   0.1856   0.6788
     0.8296   0.8296   1.7359   1.7359   1.7795   2.8011   2.8951   2.8951
     4.0248   4.0687   4.0687   4.2783   4.2783   4.2867   4.6695   4.6956
     4.6956   6.0563   6.1528   6.1528   6.8985   6.8985   6.9302  10.0598
    10.5061  10.5061  13.6378  14.1497  14.1497  16.3338  16.3338  16.5329

     occupation numbers 
     1.0000   1.0000   1.0000   1.0000   1.0000   1.0000   1.0000   1.0000
     1.0000   1.0000   1.0000   1.0000   1.0000   1.0000   1.0000   1.0000
     1.0000   1.0000   1.0000   1.0000   1.0000   1.0000   1.0000   1.0000
     1.0000   1.0000   1.0000   1.0000   1.0000   1.0000   1.0000   1.0000
     1.0000   1.0000   1.0000   1.0000   1.0000   1.0000   1.0000   1.0000
     1.0307   1.0442   1.0442   1.0696   1.0696   1.0650   0.2523   0.2041
     0.2041   0.0000   0.0000   0.0000   0.0000   0.0000   0.0000   0.0000
     0.0000   0.0000   0.0000   0.0000   0.0000   0.0000   0.0000   0.0000

          k =-0.1667-0.2887 0.2417 (  7926 PWs)   bands (ev):

   -90.5537 -90.5498 -90.5498 -53.8824 -53.8808 -53.8536 -53.8520 -53.8456
   -53.8349 -53.6858 -53.6794 -53.6794 -47.4988 -19.4308 -19.4307 -19.3450
   -14.3786 -13.2928 -13.2302 -12.9510 -12.8800 -12.7665  -1.2323  -1.1953
    -0.6511  -0.5279  -0.5016  -0.4032  -0.1672   0.4192   0.4398   0.9599
     0.9967   1.1761   1.2562   1.6215   2.3080   2.3291   2.3951   3.0248
     3.9410   4.1260   4.1370   4.1865   4.1965   4.2100   4.6208   4.6348
     5.0279   6.3898   6.4328   6.4340   6.5877   6.6166   6.9795   8.5717
    11.7232  11.9564  12.3620  15.0708  15.2687  15.4635  15.9109  16.1179

     occupation numbers 
     1.0000   1.0000   1.0000   1.0000   1.0000   1.0000   1.0000   1.0000
     1.0000   1.0000   1.0000   1.0000   1.0000   1.0000   1.0000   1.0000
     1.0000   1.0000   1.0000   1.0000   1.0000   1.0000   1.0000   1.0000
     1.0000   1.0000   1.0000   1.0000   1.0000   1.0000   1.0000   1.0000
     1.0000   1.0000   1.0000   1.0000   1.0000   1.0000   1.0000   1.0000
     1.0128   1.0637   1.0674   1.0802   1.0818   1.0831   0.3592   0.3263
     0.0030   0.0000   0.0000   0.0000   0.0000   0.0000   0.0000   0.0000
     0.0000   0.0000   0.0000   0.0000   0.0000   0.0000   0.0000   0.0000

          k =-0.1667-0.4811 0.2417 (  7912 PWs)   bands (ev):

   -90.5523 -90.5509 -90.5501 -53.8848 -53.8744 -53.8606 -53.8464 -53.8444
   -53.8389 -53.6835 -53.6811 -53.6799 -47.4988 -19.4310 -19.4308 -19.3449
   -14.0352 -13.6231 -13.3304 -12.9443 -12.8379 -12.7795  -1.4789  -0.9788
    -0.8062  -0.4095  -0.2769  -0.1637   0.0178   0.2610   0.3054   0.7994
     0.8638   1.0687   1.3889   1.5867   1.8507   2.4583   2.8379   3.1562
     4.0145   4.0442   4.0861   4.1368   4.3908   4.4205   4.5016   4.6464
     4.8778   6.1253   6.2490   6.4113   6.6964   6.8363   6.9069   9.2735
    10.4011  11.4295  13.3377  14.5310  14.9110  15.6165  16.2135  16.7080

     occupation numbers 
     1.0000   1.0000   1.0000   1.0000   1.0000   1.0000   1.0000   1.0000
     1.0000   1.0000   1.0000   1.0000   1.0000   1.0000   1.0000   1.0000
     1.0000   1.0000   1.0000   1.0000   1.0000   1.0000   1.0000   1.0000
     1.0000   1.0000   1.0000   1.0000   1.0000   1.0000   1.0000   1.0000
     1.0000   1.0000   1.0000   1.0000   1.0000   1.0000   1.0000   1.0000
     1.0279   1.0364   1.0501   1.0673   0.9396   0.8799   0.6772   0.3006
     0.0289   0.0000   0.0000   0.0000   0.0000   0.0000   0.0000   0.0000
     0.0000   0.0000   0.0000   0.0000   0.0000   0.0000   0.0000   0.0000

          k =-0.3333-0.5774 0.2417 (  7899 PWs)   bands (ev):

   -90.5511 -90.5511 -90.5511 -53.8755 -53.8755 -53.8729 -53.8436 -53.8410
   -53.8410 -53.6815 -53.6815 -53.6815 -47.4988 -19.4309 -19.4309 -19.3448
   -13.7440 -13.6516 -13.6516 -12.9052 -12.8081 -12.8081  -1.1322  -1.0613
    -1.0613  -0.2817  -0.2604  -0.2604   0.1579   0.1579   0.1857   0.6895
     0.8358   0.8358   1.7360   1.7360   1.7793   2.7770   2.8813   2.8813
     4.0262   4.0693   4.0693   4.2783   4.2783   4.2867   4.6525   4.6835
     4.6835   6.1429   6.2127   6.2127   6.8986   6.8986   6.9305   9.8501
    10.3197  10.3197  14.0068  14.5723  14.5723  16.3082  16.3082  16.5724

     occupation numbers 
     1.0000   1.0000   1.0000   1.0000   1.0000   1.0000   1.0000   1.0000
     1.0000   1.0000   1.0000   1.0000   1.0000   1.0000   1.0000   1.0000
     1.0000   1.0000   1.0000   1.0000   1.0000   1.0000   1.0000   1.0000
     1.0000   1.0000   1.0000   1.0000   1.0000   1.0000   1.0000   1.0000
     1.0000   1.0000   1.0000   1.0000   1.0000   1.0000   1.0000   1.0000
     1.0311   1.0444   1.0444   1.0695   1.0695   1.0650   0.2874   0.2257
     0.2257   0.0000   0.0000   0.0000   0.0000   0.0000   0.0000   0.0000
     0.0000   0.0000   0.0000   0.0000   0.0000   0.0000   0.0000   0.0000

     the Fermi energy is     4.6039 ev

!    total energy              =   -1489.31956651 Ry
     total all-electron energy =     -9588.554374 Ry
     estimated scf accuracy    <          2.8E-09 Ry
     smearing contrib. (-TS)   =       0.00972241 Ry
     internal energy E=F+TS    =   -1489.32928892 Ry

     The total energy is F=E-TS. E is the sum of the following terms:
     one-electron contribution =   -1470.26649824 Ry
     hartree contribution      =     770.16628125 Ry
     xc contribution           =    -150.57497343 Ry
     ewald contribution        =    -303.14233466 Ry
     one-center paw contrib.   =    -335.51176385 Ry
      -> PAW hartree energy AE =     884.52237611 Ry
      -> PAW hartree energy PS =    -882.24074105 Ry
      -> PAW xc energy AE      =    -480.32773531 Ry
      -> PAW xc energy PS      =     142.53433641 Ry
      -> total E_H with PAW    =     772.44791630 Ry
      -> total E_XC with PAW   =    -488.36837233 Ry

     total magnetization       =     2.29 Bohr mag/cell
     absolute magnetization    =     2.33 Bohr mag/cell

     convergence has been achieved in  26 iterations

     Forces acting on atoms (cartesian axes, Ry/au):

     atom    1 type  1   force =    -0.00423241   -0.00733075    0.00033926
     atom    2 type  1   force =    -0.00423241    0.00733075    0.00033926
     atom    3 type  1   force =     0.00846482    0.00000000    0.00033926
     atom    4 type  2   force =     0.00000000    0.00000000   -0.00336533
     atom    5 type  2   force =     0.00000000    0.00000000   -0.02148127
     atom    6 type  2   force =    -0.00000000   -0.00000000   -0.02148127
     atom    7 type  2   force =    -0.00262928    0.00455404    0.01352006
     atom    8 type  2   force =    -0.00262928   -0.00455404    0.01352006
     atom    9 type  2   force =     0.00525855   -0.00000000    0.01352006
     atom   10 type  3   force =     0.00000000   -0.00000000    0.00474989
     The non-local contrib.  to forces
     atom    1 type  1   force =    -0.00165151   -0.00286049   -0.00108013
     atom    2 type  1   force =    -0.00165151    0.00286049   -0.00108013
     atom    3 type  1   force =     0.00330301   -0.00000000   -0.00108013
     atom    4 type  2   force =     0.00000000    0.00000000   -0.94258023
     atom    5 type  2   force =     0.00000000    0.00000000   -1.14126872
     atom    6 type  2   force =     0.00000000    0.00000000   -1.14126872
     atom    7 type  2   force =    -0.02080166    0.03602954    1.07894075
     atom    8 type  2   force =    -0.02080166   -0.03602954    1.07894075
     atom    9 type  2   force =     0.04160333    0.00000000    1.07894075
     atom   10 type  3   force =     0.00000000    0.00000000    0.08938570
     The ionic contribution  to forces
     atom    1 type  1   force =    -0.49688466   -0.86062948    0.00000000
     atom    2 type  1   force =    -0.49688465    0.86062947   -0.00000000
     atom    3 type  1   force =     0.99376931    0.00000001   -0.00000000
     atom    4 type  2   force =     0.00000000    0.00000001   29.04999452
     atom    5 type  2   force =    -0.00000000   -0.00000000   31.11916627
     atom    6 type  2   force =    -0.00000000   -0.00000000   31.11916627
     atom    7 type  2   force =     0.36730356   -0.63618842  -30.58006955
     atom    8 type  2   force =     0.36730355    0.63618842  -30.58006954
     atom    9 type  2   force =    -0.73460711    0.00000000  -30.58006955
     atom   10 type  3   force =     0.00000000    0.00000000    0.45188159
     The local contribution  to forces
     atom    1 type  1   force =     0.49429208    0.85613893    0.00143058
     atom    2 type  1   force =     0.49429229   -0.85613892    0.00143058
     atom    3 type  1   force =    -0.98858414    0.00000018    0.00143058
     atom    4 type  2   force =     0.00000001    0.00000001  -28.11902608
     atom    5 type  2   force =    -0.00000000    0.00000000  -30.00941819
     atom    6 type  2   force =     0.00000001   -0.00000000  -30.00941819
     atom    7 type  2   force =    -0.34930698    0.60501747   29.52409722
     atom    8 type  2   force =    -0.34930700   -0.60501747   29.52409722
     atom    9 type  2   force =     0.69861399    0.00000001   29.52409722
     atom   10 type  3   force =     0.00000006    0.00000010   -0.53648339
     The core correction contribution to forces
     atom    1 type  1   force =     0.00002248    0.00003894    0.00002502
     atom    2 type  1   force =     0.00002248   -0.00003894    0.00002502
     atom    3 type  1   force =    -0.00004497    0.00000000    0.00002502
     atom    4 type  2   force =     0.00000000   -0.00000000    0.00824712
     atom    5 type  2   force =     0.00000000   -0.00000000    0.01005085
     atom    6 type  2   force =     0.00000000    0.00000000    0.01005085
     atom    7 type  2   force =     0.00017334   -0.00030023   -0.00945167
     atom    8 type  2   force =     0.00017334    0.00030023   -0.00945167
     atom    9 type  2   force =    -0.00034667   -0.00000000   -0.00945167
     atom   10 type  3   force =     0.00000000    0.00000000   -0.00004996
     The Hubbard contrib.    to forces
     atom    1 type  1   force =     0.00000000    0.00000000    0.00000000
     atom    2 type  1   force =     0.00000000    0.00000000    0.00000000
     atom    3 type  1   force =     0.00000000    0.00000000    0.00000000
     atom    4 type  2   force =     0.00000000    0.00000000    0.00000000
     atom    5 type  2   force =     0.00000000    0.00000000    0.00000000
     atom    6 type  2   force =     0.00000000    0.00000000    0.00000000
     atom    7 type  2   force =     0.00000000    0.00000000    0.00000000
     atom    8 type  2   force =     0.00000000    0.00000000    0.00000000
     atom    9 type  2   force =     0.00000000    0.00000000    0.00000000
     atom   10 type  3   force =     0.00000000    0.00000000    0.00000000
     The SCF correction term to forces
     atom    1 type  1   force =    -0.00001080   -0.00001871   -0.00004083
     atom    2 type  1   force =    -0.00001080    0.00001871   -0.00004083
     atom    3 type  1   force =     0.00002161    0.00000000   -0.00004083
     atom    4 type  2   force =     0.00000000    0.00000000   -0.00000528
     atom    5 type  2   force =    -0.00000000   -0.00000000   -0.00001612
     atom    6 type  2   force =     0.00000000   -0.00000000   -0.00001612
     atom    7 type  2   force =     0.00000249   -0.00000432   -0.00000131
     atom    8 type  2   force =     0.00000249    0.00000432   -0.00000131
     atom    9 type  2   force =    -0.00000499    0.00000000   -0.00000131
     atom   10 type  3   force =     0.00000000    0.00000000    0.00001133

     Total force =     0.042467     Total SCF correction =     0.000085

     Writing all to output data dir ./out/pw.save/ :
     XML data file, charge density, pseudopotentials, collected wavefunctions
 
     init_run     :     18.06s CPU      4.60s WALL (       1 calls)
     electrons    :    305.60s CPU     75.82s WALL (       1 calls)
     forces       :      1.27s CPU      0.87s WALL (       1 calls)

     Called by init_run:
     wfcinit      :      0.49s CPU      0.62s WALL (       1 calls)
     wfcinit:atom :      0.06s CPU      0.06s WALL (      34 calls)
     wfcinit:wfcr :      0.30s CPU      0.35s WALL (      34 calls)
     potinit      :     16.93s CPU      3.28s WALL (       1 calls)
     hinit0       :      0.51s CPU      0.51s WALL (       1 calls)

     Called by electrons:
     c_bands      :     33.05s CPU     33.19s WALL (      26 calls)
     sum_band     :      5.11s CPU      5.10s WALL (      26 calls)
     v_of_rho     :      0.60s CPU      0.35s WALL (      27 calls)
     v_h          :      0.37s CPU      0.09s WALL (      27 calls)
     v_xc         :      0.24s CPU      0.27s WALL (      28 calls)
     newd         :      0.65s CPU      0.54s WALL (      27 calls)
                                        0.54s GPU  (      27 calls)
     PAW_pot      :    274.37s CPU     36.90s WALL (      27 calls)
     mix_rho      :      0.76s CPU      0.77s WALL (      26 calls)

     Called by c_bands:
     init_us_2    :      1.06s CPU      1.03s WALL (    1836 calls)
     cegterg      :     27.72s CPU     27.87s WALL (     884 calls)

     Called by sum_band:
     sum_band:wei :      0.05s CPU      0.05s WALL (      26 calls)
                                        0.05s GPU  (      26 calls)
     sum_band:loo :      3.53s CPU      3.50s WALL (      26 calls)
                                        3.50s GPU  (      26 calls)
     sum_band:buf :      0.94s CPU      0.97s WALL (     884 calls)
                                        0.96s GPU  (     884 calls)
     sum_band:ini :      0.51s CPU      0.51s WALL (     884 calls)
                                        0.50s GPU  (     884 calls)
     sum_band:cal :      0.10s CPU      0.13s WALL (     884 calls)
                                        0.09s GPU  (     884 calls)
     sum_band:bec :      0.42s CPU      0.43s WALL (     884 calls)
                                        0.42s GPU  (     884 calls)
     addusdens    :      0.98s CPU      0.99s WALL (      26 calls)
                                        0.99s GPU  (      26 calls)
     addusd:skk   :      0.01s CPU      0.01s WALL (      78 calls)
                                        0.01s GPU  (      78 calls)

     Called by *egterg:
     cdiaghg      :     11.69s CPU     11.83s WALL (    5041 calls)
                                       11.77s GPU  (    5041 calls)
     cegterg:over :      1.36s CPU      1.39s WALL (    4157 calls)
     cegterg:upda :      1.57s CPU      1.58s WALL (    4157 calls)
     cegterg:last :      0.26s CPU      0.26s WALL (    1972 calls)
     h_psi        :     10.19s CPU     10.34s WALL (    5075 calls)
                                       10.28s GPU  (    5075 calls)
     s_psi        :      1.55s CPU      1.59s WALL (    5075 calls)
     g_psi        :      0.02s CPU      0.16s WALL (    4157 calls)
                                        0.11s GPU  (    4157 calls)

     Called by h_psi:
     h_psi:calbec :      0.22s CPU      0.47s WALL (    5075 calls)
                                        0.41s GPU  (    5075 calls)
     vloc_psi     :      7.73s CPU      7.78s WALL (    5075 calls)
                                        7.72s GPU  (    5075 calls)
     add_vuspsi   :      1.49s CPU      1.72s WALL (    5075 calls)
                                        1.65s GPU  (    5075 calls)

     General routines
     calbec       :      0.26s CPU      0.29s WALL (    6095 calls)
     fft          :      4.95s CPU      1.20s WALL (     688 calls)
                                        0.03s GPU  (     634 calls)
     ffts         :      2.32s CPU      0.68s WALL (     106 calls)
                                        0.00s GPU  (      52 calls)
     fftw         :      0.44s CPU      4.68s WALL (   26496 calls)
                                        4.39s GPU  (   26496 calls)
     interpolate  :      7.62s CPU      1.92s WALL (      54 calls)
 
     Parallel routines

     PAW routines
     PAW_pot      :    274.37s CPU     36.90s WALL (      27 calls)
     PAW_symme    :      0.05s CPU      0.01s WALL (      53 calls)
 
     PWSCF        :   5m25.74s CPU   1m21.92s WALL

 
   This run was terminated on:   2:23:12  12Jul2026            

=------------------------------------------------------------------------------=
   JOB DONE.
=------------------------------------------------------------------------------=
Warning: ieee_invalid is signaling
Warning: ieee_divide_by_zero is signaling
Warning: ieee_inexact is signaling
FORTRAN STOP
