
     Program PWSCF v.7.3.1 starts on 12Jul2026 at  2:24:24 

     This program is part of the open-source Quantum ESPRESSO suite
     for quantum simulation of materials; please cite
         "P. Giannozzi et al., J. Phys.:Condens. Matter 21 395502 (2009);
         "P. Giannozzi et al., J. Phys.:Condens. Matter 29 465901 (2017);
         "P. Giannozzi et al., J. Chem. Phys. 152 154105 (2020);
          URL http://www.quantum-espresso.org", 
     in publications or presentations arising from this work. More details at
     http://www.quantum-espresso.org/quote

     Parallel version (MPI & OpenMP), running on      14 processor cores
     Number of MPI processes:                 1
     Threads/MPI process:                    14

     MPI processes distributed on     1 nodes
     846451 MiB available memory on the printing compute node when the environment starts
 
     Reading input from pw.in

     Current dimensions of program PWSCF are:
     Max number of different atomic species (ntypx) = 10
     Max number of k-points (npk) =  40000
     Max angular momentum in pseudopotentials (lmaxx) =  4
     file Co.pbe-spn-kjpaw_psl.0.3.1.UPF: wavefunction(s)  3P 3D renormalized
     file O.pbe-n-kjpaw_psl.1.0.0.UPF: wavefunction(s)  2S 2P renormalized
     file Na.pbe-spn-kjpaw_psl.1.0.0.UPF: wavefunction(s)  2P renormalized
 
     Subspace diagonalization in iterative solution of the eigenvalue problem:
     a serial algorithm will be used

 
     G-vector sticks info
     --------------------
     sticks:   dense  smooth     PW     G-vecs:    dense   smooth      PW
     Sum        2941    1483    421               256907    90927   13609
 
     Using Slab Decomposition
 


     bravais-lattice index     =            4
     lattice parameter (alat)  =       9.4527  a.u.
     unit-cell volume          =    1447.6983 (a.u.)^3
     number of atoms/cell      =           10
     number of atomic types    =            3
     number of electrons       =        96.00
     number of Kohn-Sham states=           64
     kinetic-energy cutoff     =      60.0000  Ry
     charge density cutoff     =     480.0000  Ry
     scf convergence threshold =      1.0E-08
     mixing beta               =       0.3000
     number of iterations used =            8  plain     mixing
     Exchange-correlation= SLA  PW   PBX  PBC
                           (   1   4   3   4   0   0   0)

     GPU acceleration is ACTIVE.  1 visible GPUs per MPI rank
     GPU-aware MPI enabled


     GPU used by master process:

        Device Number: 0
        Device name: NVIDIA A100-SXM4-80GB
        Compute capability : 80
        Ratio of single to double precision performance  : 2
        Memory Clock Rate (KHz): 1593000
        Memory Bus Width (bits): 5120
        Peak Memory Bandwidth (GB/s): ******

     celldm(1)=   9.452718  celldm(2)=   0.000000  celldm(3)=   1.979144
     celldm(4)=   0.000000  celldm(5)=   0.000000  celldm(6)=   0.000000

     crystal axes: (cart. coord. in units of alat)
               a(1) = (   1.000000   0.000000   0.000000 )  
               a(2) = (  -0.500000   0.866025   0.000000 )  
               a(3) = (   0.000000   0.000000   1.979144 )  

     reciprocal axes: (cart. coord. in units 2 pi/alat)
               b(1) = (  1.000000  0.577350 -0.000000 )  
               b(2) = (  0.000000  1.154701  0.000000 )  
               b(3) = (  0.000000 -0.000000  0.505269 )  


     PseudoPot. # 1 for Co read from file:
     ../../pseudo/Co.pbe-spn-kjpaw_psl.0.3.1.UPF
     MD5 check sum: 3c0a43779828c046024e4f3be63f8e67
     Pseudo is Projector augmented-wave + core cor, Zval = 17.0
     Generated using &quot;atomic&quot; code by A. Dal Corso  v.6.2.2
     Shape of augmentation charge: PSQ
     Using radial grid of 1193 points,  6 beta functions with: 
                l(1) =   0
                l(2) =   0
                l(3) =   1
                l(4) =   1
                l(5) =   2
                l(6) =   2
     Q(r) pseudized with 0 coefficients 


     PseudoPot. # 2 for O  read from file:
     ../../pseudo/O.pbe-n-kjpaw_psl.1.0.0.UPF
     MD5 check sum: e99d9cef9b487d1ca56f5b95ecd0fd7a
     Pseudo is Projector augmented-wave + core cor, Zval =  6.0
     Generated using &quot;atomic&quot; code by A. Dal Corso  v.6.3
     Shape of augmentation charge: PSQ
     Using radial grid of 1095 points,  4 beta functions with: 
                l(1) =   0
                l(2) =   0
                l(3) =   1
                l(4) =   1
     Q(r) pseudized with 0 coefficients 


     PseudoPot. # 3 for Na read from file:
     ../../pseudo/Na.pbe-spn-kjpaw_psl.1.0.0.UPF
     MD5 check sum: 05b4deb74e3932c23ab016979dc8b5d4
     Pseudo is Projector augmented-wave + core cor, Zval =  9.0
     Generated using &quot;atomic&quot; code by A. Dal Corso  v.6.3
     Shape of augmentation charge: PSQ
     Using radial grid of 1121 points,  4 beta functions with: 
                l(1) =   0
                l(2) =   0
                l(3) =   1
                l(4) =   1
     Q(r) pseudized with 0 coefficients 


     atomic species   valence    mass     pseudopotential
     Co               17.00    58.93300     Co( 1.00)
     O                 6.00    15.99900     O ( 1.00)
     Na                9.00    22.98977     Na( 1.00)

     Starting magnetic structure 
     atomic species   magnetization
     Co              0.300
     O               0.000
     Na              0.000

      6 Sym. Ops. (no inversion) found ( 4 have fractional translation)


                                    s                        frac. trans.

      isym =  1     identity                                     

 cryst.   s( 1) = (     1          0          0      )
                  (     0          1          0      )
                  (     0          0          1      )

 cart.    s( 1) = (  1.0000000  0.0000000  0.0000000 )
                  (  0.0000000  1.0000000  0.0000000 )
                  (  0.0000000  0.0000000  1.0000000 )


      isym =  2     120 deg rotation - cryst. axis [0,0,1]       

 cryst.   s( 2) = (     0          1          0      )    f =(  0.3333333 )
                  (    -1         -1          0      )       ( -0.3333333 )
                  (     0          0          1      )       (  0.0000000 )

 cart.    s( 2) = ( -0.5000000 -0.8660254  0.0000000 )    f =(  0.5000000 )
                  (  0.8660254 -0.5000000  0.0000000 )       ( -0.2886751 )
                  (  0.0000000  0.0000000  1.0000000 )       (  0.0000000 )


      isym =  3     120 deg rotation - cryst. axis [0,0,-1]      

 cryst.   s( 3) = (    -1         -1          0      )    f =( -0.3333333 )
                  (     1          0          0      )       (  0.3333333 )
                  (     0          0          1      )       (  0.0000000 )

 cart.    s( 3) = ( -0.5000000  0.8660254  0.0000000 )    f =( -0.5000000 )
                  ( -0.8660254 -0.5000000  0.0000000 )       (  0.2886751 )
                  (  0.0000000  0.0000000  1.0000000 )       (  0.0000000 )


      isym =  4     inv. 180 deg rotation - cart. axis [0,1,0]   

 cryst.   s( 4) = (     1          0          0      )    f =( -0.3333333 )
                  (    -1         -1          0      )       (  0.3333333 )
                  (     0          0          1      )       (  0.0000000 )

 cart.    s( 4) = (  1.0000000  0.0000000  0.0000000 )    f =( -0.5000000 )
                  (  0.0000000 -1.0000000  0.0000000 )       (  0.2886751 )
                  (  0.0000000  0.0000000  1.0000000 )       (  0.0000000 )


      isym =  5     inv. 180 deg rotation - cryst. axis [1,-1,0] 

 cryst.   s( 5) = (     0          1          0      )
                  (     1          0          0      )
                  (     0          0          1      )

 cart.    s( 5) = ( -0.5000000  0.8660254  0.0000000 )
                  (  0.8660254  0.5000000  0.0000000 )
                  (  0.0000000  0.0000000  1.0000000 )


      isym =  6     inv. 180 deg rotation - cryst. axis [2,1,0]  

 cryst.   s( 6) = (    -1         -1          0      )    f =(  0.3333333 )
                  (     0          1          0      )       ( -0.3333333 )
                  (     0          0          1      )       (  0.0000000 )

 cart.    s( 6) = ( -0.5000000 -0.8660254  0.0000000 )    f =(  0.5000000 )
                  ( -0.8660254  0.5000000  0.0000000 )       ( -0.2886751 )
                  (  0.0000000  0.0000000  1.0000000 )       (  0.0000000 )


     point group C_3v (3m)  
     there are  3 classes
     the character table:

       E     2C3   3s_v 
A_1    1.00  1.00  1.00
A_2    1.00  1.00 -1.00
E      2.00 -1.00  0.00

     the symmetry operations in each class and the name of the first element:

     E        1
          identity                                               
     2C3      2    3
          120 deg rotation - cryst. axis [0,0,1]                 
     3s_v     4    6    5
          inv. 180 deg rotation - cart. axis [0,1,0]             

   Cartesian axes

     site n.     atom                  positions (alat units)
         1        Co     tau(   1) = (   0.0000000   0.0000000   0.0000000  )
         2        Co     tau(   2) = (  -0.0000000   0.5773503   0.0000000  )
         3        Co     tau(   3) = (   0.5000000   0.2886751   0.0000000  )
         4        O      tau(   4) = (   0.1666667   0.2886751   0.1919170  )
         5        O      tau(   5) = (   0.6666667   0.0000000   0.1919170  )
         6        O      tau(   6) = (  -0.3333333   0.5773503   0.1919170  )
         7        O      tau(   7) = (   0.3333333   0.0000000   1.7872269  )
         8        O      tau(   8) = (   0.3333333   0.5773503   1.7872269  )
         9        O      tau(   9) = (  -0.1666667   0.2886751   1.7872269  )
        10        Na     tau(  10) = (   0.1666667   0.2886751   1.0895287  )

   Crystallographic axes

     site n.     atom                  positions (cryst. coord.)
         1        Co     tau(   1) = (  0.0000000  0.0000000  0.0000000  )
         2        Co     tau(   2) = (  0.3333333  0.6666667  0.0000000  )
         3        Co     tau(   3) = (  0.6666667  0.3333333  0.0000000  )
         4        O      tau(   4) = (  0.3333333  0.3333333  0.0969697  )
         5        O      tau(   5) = (  0.6666667  0.0000000  0.0969697  )
         6        O      tau(   6) = (  0.0000000  0.6666667  0.0969697  )
         7        O      tau(   7) = (  0.3333333  0.0000000  0.9030303  )
         8        O      tau(   8) = (  0.6666667  0.6666667  0.9030303  )
         9        O      tau(   9) = ( -0.0000000  0.3333333  0.9030303  )
        10        Na     tau(  10) = (  0.3333333  0.3333333  0.5505051  )

     number of k points=    17  Marzari-Vanderbilt smearing, width (Ry)=  0.0200
                       cart. coord. in units 2pi/alat
        k(    1) = (   0.0000000   0.0000000   0.0000000), wk =   0.0092593
        k(    2) = (   0.0000000   0.0000000   0.1684230), wk =   0.0185185
        k(    3) = (   0.0000000   0.1924501   0.0000000), wk =   0.0555556
        k(    4) = (   0.0000000   0.1924501   0.1684230), wk =   0.1111111
        k(    5) = (   0.0000000   0.3849002   0.0000000), wk =   0.0555556
        k(    6) = (   0.0000000   0.3849002   0.1684230), wk =   0.1111111
        k(    7) = (   0.0000000  -0.5773503   0.0000000), wk =   0.0277778
        k(    8) = (   0.0000000  -0.5773503   0.1684230), wk =   0.0555556
        k(    9) = (   0.1666667   0.2886751   0.0000000), wk =   0.0555556
        k(   10) = (   0.1666667   0.2886751   0.1684230), wk =   0.0555556
        k(   11) = (   0.1666667   0.4811252   0.0000000), wk =   0.1111111
        k(   12) = (   0.1666667   0.4811252   0.1684230), wk =   0.1111111
        k(   13) = (   0.3333333   0.5773503   0.0000000), wk =   0.0185185
        k(   14) = (   0.3333333   0.5773503   0.1684230), wk =   0.0185185
        k(   15) = (  -0.1666667  -0.2886751   0.1684230), wk =   0.0555556
        k(   16) = (  -0.1666667  -0.4811252   0.1684230), wk =   0.1111111
        k(   17) = (  -0.3333333  -0.5773503   0.1684230), wk =   0.0185185

                       cryst. coord.
        k(    1) = (   0.0000000   0.0000000   0.0000000), wk =   0.0092593
        k(    2) = (   0.0000000   0.0000000   0.3333333), wk =   0.0185185
        k(    3) = (   0.0000000   0.1666667   0.0000000), wk =   0.0555556
        k(    4) = (   0.0000000   0.1666667   0.3333333), wk =   0.1111111
        k(    5) = (   0.0000000   0.3333333   0.0000000), wk =   0.0555556
        k(    6) = (   0.0000000   0.3333333   0.3333333), wk =   0.1111111
        k(    7) = (   0.0000000  -0.5000000   0.0000000), wk =   0.0277778
        k(    8) = (   0.0000000  -0.5000000   0.3333333), wk =   0.0555556
        k(    9) = (   0.1666667   0.1666667   0.0000000), wk =   0.0555556
        k(   10) = (   0.1666667   0.1666667   0.3333333), wk =   0.0555556
        k(   11) = (   0.1666667   0.3333333   0.0000000), wk =   0.1111111
        k(   12) = (   0.1666667   0.3333333   0.3333333), wk =   0.1111111
        k(   13) = (   0.3333333   0.3333333   0.0000000), wk =   0.0185185
        k(   14) = (   0.3333333   0.3333333   0.3333333), wk =   0.0185185
        k(   15) = (  -0.1666667  -0.1666667   0.3333333), wk =   0.0555556
        k(   16) = (  -0.1666667  -0.3333333   0.3333333), wk =   0.1111111
        k(   17) = (  -0.3333333  -0.3333333   0.3333333), wk =   0.0185185

     Dense  grid:   256907 G-vectors     FFT dimensions: (  72,  72, 135)

     Smooth grid:    90927 G-vectors     FFT dimensions: (  48,  48,  96)

     Dynamical RAM for                 wfc:      11.10 MB

     Dynamical RAM for     wfc (w. buffer):     388.35 MB

     Dynamical RAM for           str. fact:      11.76 MB

     Dynamical RAM for           local pot:       0.00 MB

     Dynamical RAM for          nlocal pot:      19.07 MB

     Dynamical RAM for                qrad:       5.27 MB

     Dynamical RAM for          rho,v,vnew:      55.56 MB

     Dynamical RAM for               rhoin:      18.52 MB

     Dynamical RAM for            rho*nmix:     125.44 MB

     Dynamical RAM for           G-vectors:      15.39 MB

     Dynamical RAM for          h,s,v(r/c):       0.75 MB

     Dynamical RAM for          <psi|beta>:       0.11 MB

     Dynamical RAM for                 psi:      22.19 MB

     Dynamical RAM for                hpsi:      22.19 MB

     Dynamical RAM for                spsi:      22.19 MB

     Dynamical RAM for      wfcinit/wfcrot:      22.29 MB

     Dynamical RAM for           addusdens:     756.58 MB

     Dynamical RAM for          addusforce:     795.83 MB

     Estimated static dynamical RAM per process >     561.64 MB

     Estimated max dynamical RAM per process >       1.45 GB

     Check: negative core charge=   -0.000006
     Generating pointlists ...
     new r_m :   0.1587 (alat units)  1.4998 (a.u.) for type    1
     new r_m :   0.1587 (alat units)  1.4998 (a.u.) for type    2
     new r_m :   0.3190 (alat units)  3.0150 (a.u.) for type    3

     Initial potential from superposition of free atoms

     starting charge      95.9928, renormalised to      96.0000
     Starting wfcs are   59 randomized atomic wfcs +    5 random wfcs
     Checking if some PAW data can be deallocated... 

     total cpu time spent up to now is        5.6 secs

     Self-consistent Calculation
[tb_dev] Currently allocated     9.94E-01 Mbytes, locked:    0 /   6
[tb_pin] Currently allocated     0.00E+00 Mbytes, locked:    0 /   0

     iteration #  1     ecut=    60.00 Ry     beta= 0.30
     Davidson diagonalization with overlap

---- Real-time Memory Report at c_bands before calling an iterative solver
          1137 MiB given to the printing process from OS
             0 MiB allocation reported by mallinfo(arena+hblkhd)
        845589 MiB available memory on the node where the printing process lives
     GPU memory used/free/total (MiB): 1984 / 79166 / 81151
------------------
     ethr =  1.00E-02,  avg # of iterations = 10.4

     total cpu time spent up to now is        9.6 secs

     total energy              =   -1486.59751010 Ry
     estimated scf accuracy    <       6.35003212 Ry

     total magnetization       =    14.00 Bohr mag/cell
     absolute magnetization    =    14.00 Bohr mag/cell
[tb_dev] Currently allocated     7.63E-05 Mbytes, locked:    0 /   2
[tb_pin] Currently allocated     0.00E+00 Mbytes, locked:    0 /   0

     iteration #  2     ecut=    60.00 Ry     beta= 0.30
     Davidson diagonalization with overlap

---- Real-time Memory Report at c_bands before calling an iterative solver
          1199 MiB given to the printing process from OS
             0 MiB allocation reported by mallinfo(arena+hblkhd)
        845526 MiB available memory on the node where the printing process lives
     GPU memory used/free/total (MiB): 2070 / 79080 / 81151
------------------
     ethr =  6.61E-03,  avg # of iterations =  2.0

     total cpu time spent up to now is       12.3 secs

     total energy              =   -1487.31815983 Ry
     estimated scf accuracy    <      17.40229517 Ry

     total magnetization       =     1.67 Bohr mag/cell
     absolute magnetization    =     1.93 Bohr mag/cell
[tb_dev] Currently allocated     7.63E-05 Mbytes, locked:    0 /   2
[tb_pin] Currently allocated     0.00E+00 Mbytes, locked:    0 /   0

     iteration #  3     ecut=    60.00 Ry     beta= 0.30
     Davidson diagonalization with overlap

---- Real-time Memory Report at c_bands before calling an iterative solver
          1210 MiB given to the printing process from OS
             0 MiB allocation reported by mallinfo(arena+hblkhd)
        846316 MiB available memory on the node where the printing process lives
     GPU memory used/free/total (MiB): 2070 / 79080 / 81151
------------------
     ethr =  6.61E-03,  avg # of iterations =  1.2

     total cpu time spent up to now is       14.9 secs

     total energy              =   -1488.63223591 Ry
     estimated scf accuracy    <       0.52420249 Ry

     total magnetization       =     8.18 Bohr mag/cell
     absolute magnetization    =     8.21 Bohr mag/cell
[tb_dev] Currently allocated     7.63E-05 Mbytes, locked:    0 /   2
[tb_pin] Currently allocated     0.00E+00 Mbytes, locked:    0 /   0

     iteration #  4     ecut=    60.00 Ry     beta= 0.30
     Davidson diagonalization with overlap

---- Real-time Memory Report at c_bands before calling an iterative solver
          1218 MiB given to the printing process from OS
             0 MiB allocation reported by mallinfo(arena+hblkhd)
        846343 MiB available memory on the node where the printing process lives
     GPU memory used/free/total (MiB): 2070 / 79080 / 81151
------------------
     ethr =  5.46E-04,  avg # of iterations = 10.8

     total cpu time spent up to now is       19.1 secs

     total energy              =   -1488.80441286 Ry
     estimated scf accuracy    <       1.13494753 Ry

     total magnetization       =     4.89 Bohr mag/cell
     absolute magnetization    =     5.73 Bohr mag/cell
[tb_dev] Currently allocated     7.63E-05 Mbytes, locked:    0 /   2
[tb_pin] Currently allocated     0.00E+00 Mbytes, locked:    0 /   0

     iteration #  5     ecut=    60.00 Ry     beta= 0.30
     Davidson diagonalization with overlap

---- Real-time Memory Report at c_bands before calling an iterative solver
          1226 MiB given to the printing process from OS
             0 MiB allocation reported by mallinfo(arena+hblkhd)
        846336 MiB available memory on the node where the printing process lives
     GPU memory used/free/total (MiB): 2070 / 79080 / 81151
------------------
     ethr =  5.46E-04,  avg # of iterations =  1.8

     total cpu time spent up to now is       21.7 secs

     total energy              =   -1488.89738468 Ry
     estimated scf accuracy    <       0.84213892 Ry

     total magnetization       =     4.39 Bohr mag/cell
     absolute magnetization    =     5.20 Bohr mag/cell
[tb_dev] Currently allocated     7.63E-05 Mbytes, locked:    0 /   2
[tb_pin] Currently allocated     0.00E+00 Mbytes, locked:    0 /   0

     iteration #  6     ecut=    60.00 Ry     beta= 0.30
     Davidson diagonalization with overlap

---- Real-time Memory Report at c_bands before calling an iterative solver
          1235 MiB given to the printing process from OS
             0 MiB allocation reported by mallinfo(arena+hblkhd)
        846344 MiB available memory on the node where the printing process lives
     GPU memory used/free/total (MiB): 2070 / 79080 / 81151
------------------
     ethr =  5.46E-04,  avg # of iterations =  1.5

     total cpu time spent up to now is       24.5 secs

     total energy              =   -1489.05601324 Ry
     estimated scf accuracy    <       0.21042847 Ry

     total magnetization       =     3.73 Bohr mag/cell
     absolute magnetization    =     4.90 Bohr mag/cell
[tb_dev] Currently allocated     7.63E-05 Mbytes, locked:    0 /   2
[tb_pin] Currently allocated     0.00E+00 Mbytes, locked:    0 /   0

     iteration #  7     ecut=    60.00 Ry     beta= 0.30
     Davidson diagonalization with overlap

---- Real-time Memory Report at c_bands before calling an iterative solver
          1248 MiB given to the printing process from OS
             0 MiB allocation reported by mallinfo(arena+hblkhd)
        846353 MiB available memory on the node where the printing process lives
     GPU memory used/free/total (MiB): 2070 / 79080 / 81151
------------------
     ethr =  2.19E-04,  avg # of iterations =  3.3

     total cpu time spent up to now is       27.5 secs

     total energy              =   -1489.07725977 Ry
     estimated scf accuracy    <       0.21637766 Ry

     total magnetization       =     2.01 Bohr mag/cell
     absolute magnetization    =     3.19 Bohr mag/cell
[tb_dev] Currently allocated     7.63E-05 Mbytes, locked:    0 /   2
[tb_pin] Currently allocated     0.00E+00 Mbytes, locked:    0 /   0

     iteration #  8     ecut=    60.00 Ry     beta= 0.30
     Davidson diagonalization with overlap

---- Real-time Memory Report at c_bands before calling an iterative solver
          1257 MiB given to the printing process from OS
             0 MiB allocation reported by mallinfo(arena+hblkhd)
        846307 MiB available memory on the node where the printing process lives
     GPU memory used/free/total (MiB): 2070 / 79080 / 81151
------------------
     ethr =  2.19E-04,  avg # of iterations =  5.2

     total cpu time spent up to now is       30.8 secs

     total energy              =   -1489.11216224 Ry
     estimated scf accuracy    <       1.06628596 Ry

     total magnetization       =     1.56 Bohr mag/cell
     absolute magnetization    =     1.91 Bohr mag/cell
[tb_dev] Currently allocated     7.63E-05 Mbytes, locked:    0 /   2
[tb_pin] Currently allocated     0.00E+00 Mbytes, locked:    0 /   0

     iteration #  9     ecut=    60.00 Ry     beta= 0.30
     Davidson diagonalization with overlap

---- Real-time Memory Report at c_bands before calling an iterative solver
          1263 MiB given to the printing process from OS
             0 MiB allocation reported by mallinfo(arena+hblkhd)
        846315 MiB available memory on the node where the printing process lives
     GPU memory used/free/total (MiB): 2070 / 79080 / 81151
------------------
     ethr =  2.19E-04,  avg # of iterations =  1.6

     total cpu time spent up to now is       33.6 secs

     total energy              =   -1489.12223737 Ry
     estimated scf accuracy    <       0.21867684 Ry

     total magnetization       =     2.84 Bohr mag/cell
     absolute magnetization    =     3.00 Bohr mag/cell
[tb_dev] Currently allocated     7.63E-05 Mbytes, locked:    0 /   2
[tb_pin] Currently allocated     0.00E+00 Mbytes, locked:    0 /   0

     iteration # 10     ecut=    60.00 Ry     beta= 0.30
     Davidson diagonalization with overlap

---- Real-time Memory Report at c_bands before calling an iterative solver
          1274 MiB given to the printing process from OS
             0 MiB allocation reported by mallinfo(arena+hblkhd)
        846334 MiB available memory on the node where the printing process lives
     GPU memory used/free/total (MiB): 2070 / 79080 / 81151
------------------
     ethr =  2.19E-04,  avg # of iterations =  1.1

     total cpu time spent up to now is       36.4 secs

     total energy              =   -1489.13968314 Ry
     estimated scf accuracy    <       0.01793956 Ry

     total magnetization       =     2.46 Bohr mag/cell
     absolute magnetization    =     2.75 Bohr mag/cell
[tb_dev] Currently allocated     7.63E-05 Mbytes, locked:    0 /   2
[tb_pin] Currently allocated     0.00E+00 Mbytes, locked:    0 /   0

     iteration # 11     ecut=    60.00 Ry     beta= 0.30
     Davidson diagonalization with overlap

---- Real-time Memory Report at c_bands before calling an iterative solver
          1274 MiB given to the printing process from OS
             0 MiB allocation reported by mallinfo(arena+hblkhd)
        846345 MiB available memory on the node where the printing process lives
     GPU memory used/free/total (MiB): 2070 / 79080 / 81151
------------------
     c_bands:  1 eigenvalues not converged
     c_bands:  1 eigenvalues not converged
     c_bands:  1 eigenvalues not converged
     ethr =  1.87E-05,  avg # of iterations = 10.9

     total cpu time spent up to now is       41.0 secs

     total energy              =   -1489.14347896 Ry
     estimated scf accuracy    <       0.01163294 Ry

     total magnetization       =     2.52 Bohr mag/cell
     absolute magnetization    =     2.61 Bohr mag/cell
[tb_dev] Currently allocated     7.63E-05 Mbytes, locked:    0 /   2
[tb_pin] Currently allocated     0.00E+00 Mbytes, locked:    0 /   0

     iteration # 12     ecut=    60.00 Ry     beta= 0.30
     Davidson diagonalization with overlap

---- Real-time Memory Report at c_bands before calling an iterative solver
          1274 MiB given to the printing process from OS
             0 MiB allocation reported by mallinfo(arena+hblkhd)
        847182 MiB available memory on the node where the printing process lives
     GPU memory used/free/total (MiB): 2070 / 79080 / 81151
------------------
     ethr =  1.21E-05,  avg # of iterations =  2.3

     total cpu time spent up to now is       43.8 secs

     total energy              =   -1489.14492485 Ry
     estimated scf accuracy    <       0.00368229 Ry

     total magnetization       =     2.48 Bohr mag/cell
     absolute magnetization    =     2.60 Bohr mag/cell
[tb_dev] Currently allocated     7.63E-05 Mbytes, locked:    0 /   2
[tb_pin] Currently allocated     0.00E+00 Mbytes, locked:    0 /   0

     iteration # 13     ecut=    60.00 Ry     beta= 0.30
     Davidson diagonalization with overlap

---- Real-time Memory Report at c_bands before calling an iterative solver
          1274 MiB given to the printing process from OS
             0 MiB allocation reported by mallinfo(arena+hblkhd)
        847153 MiB available memory on the node where the printing process lives
     GPU memory used/free/total (MiB): 2070 / 79080 / 81151
------------------
     ethr =  3.84E-06,  avg # of iterations =  6.2

     total cpu time spent up to now is       47.3 secs

     total energy              =   -1489.14627375 Ry
     estimated scf accuracy    <       0.00088253 Ry

     total magnetization       =     2.55 Bohr mag/cell
     absolute magnetization    =     2.65 Bohr mag/cell
[tb_dev] Currently allocated     7.63E-05 Mbytes, locked:    0 /   2
[tb_pin] Currently allocated     0.00E+00 Mbytes, locked:    0 /   0

     iteration # 14     ecut=    60.00 Ry     beta= 0.30
     Davidson diagonalization with overlap

---- Real-time Memory Report at c_bands before calling an iterative solver
          1274 MiB given to the printing process from OS
             0 MiB allocation reported by mallinfo(arena+hblkhd)
        847158 MiB available memory on the node where the printing process lives
     GPU memory used/free/total (MiB): 2070 / 79080 / 81151
------------------
     c_bands:  1 eigenvalues not converged
     ethr =  9.19E-07,  avg # of iterations =  6.5

     total cpu time spent up to now is       51.0 secs

     total energy              =   -1489.14671970 Ry
     estimated scf accuracy    <       0.00087399 Ry

     total magnetization       =     2.55 Bohr mag/cell
     absolute magnetization    =     2.66 Bohr mag/cell
[tb_dev] Currently allocated     7.63E-05 Mbytes, locked:    0 /   2
[tb_pin] Currently allocated     0.00E+00 Mbytes, locked:    0 /   0

     iteration # 15     ecut=    60.00 Ry     beta= 0.30
     Davidson diagonalization with overlap

---- Real-time Memory Report at c_bands before calling an iterative solver
          1274 MiB given to the printing process from OS
             0 MiB allocation reported by mallinfo(arena+hblkhd)
        847145 MiB available memory on the node where the printing process lives
     GPU memory used/free/total (MiB): 2070 / 79080 / 81151
------------------
     ethr =  9.10E-07,  avg # of iterations =  1.5

     total cpu time spent up to now is       53.7 secs

     total energy              =   -1489.14673222 Ry
     estimated scf accuracy    <       0.00062577 Ry

     total magnetization       =     2.54 Bohr mag/cell
     absolute magnetization    =     2.65 Bohr mag/cell
[tb_dev] Currently allocated     7.63E-05 Mbytes, locked:    0 /   2
[tb_pin] Currently allocated     0.00E+00 Mbytes, locked:    0 /   0

     iteration # 16     ecut=    60.00 Ry     beta= 0.30
     Davidson diagonalization with overlap

---- Real-time Memory Report at c_bands before calling an iterative solver
          1274 MiB given to the printing process from OS
             0 MiB allocation reported by mallinfo(arena+hblkhd)
        847147 MiB available memory on the node where the printing process lives
     GPU memory used/free/total (MiB): 2070 / 79080 / 81151
------------------
     ethr =  6.52E-07,  avg # of iterations =  3.8

     total cpu time spent up to now is       56.8 secs

     total energy              =   -1489.14682828 Ry
     estimated scf accuracy    <       0.00015414 Ry

     total magnetization       =     2.47 Bohr mag/cell
     absolute magnetization    =     2.60 Bohr mag/cell
[tb_dev] Currently allocated     7.63E-05 Mbytes, locked:    0 /   2
[tb_pin] Currently allocated     0.00E+00 Mbytes, locked:    0 /   0

     iteration # 17     ecut=    60.00 Ry     beta= 0.30
     Davidson diagonalization with overlap

---- Real-time Memory Report at c_bands before calling an iterative solver
          1274 MiB given to the printing process from OS
             0 MiB allocation reported by mallinfo(arena+hblkhd)
        847173 MiB available memory on the node where the printing process lives
     GPU memory used/free/total (MiB): 2070 / 79080 / 81151
------------------
     ethr =  1.61E-07,  avg # of iterations =  4.8

     total cpu time spent up to now is       60.1 secs

     total energy              =   -1489.14686801 Ry
     estimated scf accuracy    <       0.00000875 Ry

     total magnetization       =     2.49 Bohr mag/cell
     absolute magnetization    =     2.62 Bohr mag/cell
[tb_dev] Currently allocated     7.63E-05 Mbytes, locked:    0 /   2
[tb_pin] Currently allocated     0.00E+00 Mbytes, locked:    0 /   0

     iteration # 18     ecut=    60.00 Ry     beta= 0.30
     Davidson diagonalization with overlap

---- Real-time Memory Report at c_bands before calling an iterative solver
          1274 MiB given to the printing process from OS
             0 MiB allocation reported by mallinfo(arena+hblkhd)
        847159 MiB available memory on the node where the printing process lives
     GPU memory used/free/total (MiB): 2070 / 79080 / 81151
------------------
     ethr =  9.11E-09,  avg # of iterations = 14.1

     total cpu time spent up to now is       65.1 secs

     total energy              =   -1489.14688896 Ry
     estimated scf accuracy    <       0.00000471 Ry

     total magnetization       =     2.48 Bohr mag/cell
     absolute magnetization    =     2.62 Bohr mag/cell
[tb_dev] Currently allocated     7.63E-05 Mbytes, locked:    0 /   2
[tb_pin] Currently allocated     0.00E+00 Mbytes, locked:    0 /   0

     iteration # 19     ecut=    60.00 Ry     beta= 0.30
     Davidson diagonalization with overlap

---- Real-time Memory Report at c_bands before calling an iterative solver
          1274 MiB given to the printing process from OS
             0 MiB allocation reported by mallinfo(arena+hblkhd)
        847115 MiB available memory on the node where the printing process lives
     GPU memory used/free/total (MiB): 2070 / 79080 / 81151
------------------
     ethr =  4.91E-09,  avg # of iterations =  2.9

     total cpu time spent up to now is       68.0 secs

     total energy              =   -1489.14688805 Ry
     estimated scf accuracy    <       0.00000532 Ry

     total magnetization       =     2.48 Bohr mag/cell
     absolute magnetization    =     2.62 Bohr mag/cell
[tb_dev] Currently allocated     7.63E-05 Mbytes, locked:    0 /   2
[tb_pin] Currently allocated     0.00E+00 Mbytes, locked:    0 /   0

     iteration # 20     ecut=    60.00 Ry     beta= 0.30
     Davidson diagonalization with overlap

---- Real-time Memory Report at c_bands before calling an iterative solver
          1274 MiB given to the printing process from OS
             0 MiB allocation reported by mallinfo(arena+hblkhd)
        847126 MiB available memory on the node where the printing process lives
     GPU memory used/free/total (MiB): 2070 / 79080 / 81151
------------------
     ethr =  4.91E-09,  avg # of iterations =  2.0

     total cpu time spent up to now is       70.8 secs

     total energy              =   -1489.14688880 Ry
     estimated scf accuracy    <       0.00000079 Ry

     total magnetization       =     2.48 Bohr mag/cell
     absolute magnetization    =     2.62 Bohr mag/cell
[tb_dev] Currently allocated     7.63E-05 Mbytes, locked:    0 /   2
[tb_pin] Currently allocated     0.00E+00 Mbytes, locked:    0 /   0

     iteration # 21     ecut=    60.00 Ry     beta= 0.30
     Davidson diagonalization with overlap

---- Real-time Memory Report at c_bands before calling an iterative solver
          1274 MiB given to the printing process from OS
             0 MiB allocation reported by mallinfo(arena+hblkhd)
        847132 MiB available memory on the node where the printing process lives
     GPU memory used/free/total (MiB): 2070 / 79080 / 81151
------------------
     ethr =  8.23E-10,  avg # of iterations =  8.2

     total cpu time spent up to now is       74.8 secs

     total energy              =   -1489.14688990 Ry
     estimated scf accuracy    <       0.00000104 Ry

     total magnetization       =     2.48 Bohr mag/cell
     absolute magnetization    =     2.62 Bohr mag/cell
[tb_dev] Currently allocated     7.63E-05 Mbytes, locked:    0 /   2
[tb_pin] Currently allocated     0.00E+00 Mbytes, locked:    0 /   0

     iteration # 22     ecut=    60.00 Ry     beta= 0.30
     Davidson diagonalization with overlap

---- Real-time Memory Report at c_bands before calling an iterative solver
          1274 MiB given to the printing process from OS
             0 MiB allocation reported by mallinfo(arena+hblkhd)
        847122 MiB available memory on the node where the printing process lives
     GPU memory used/free/total (MiB): 2070 / 79080 / 81151
------------------
     ethr =  8.23E-10,  avg # of iterations =  1.5

     total cpu time spent up to now is       77.5 secs

     total energy              =   -1489.14688985 Ry
     estimated scf accuracy    <       0.00000053 Ry

     total magnetization       =     2.48 Bohr mag/cell
     absolute magnetization    =     2.62 Bohr mag/cell
[tb_dev] Currently allocated     7.63E-05 Mbytes, locked:    0 /   2
[tb_pin] Currently allocated     0.00E+00 Mbytes, locked:    0 /   0

     iteration # 23     ecut=    60.00 Ry     beta= 0.30
     Davidson diagonalization with overlap

---- Real-time Memory Report at c_bands before calling an iterative solver
          1274 MiB given to the printing process from OS
             0 MiB allocation reported by mallinfo(arena+hblkhd)
        847144 MiB available memory on the node where the printing process lives
     GPU memory used/free/total (MiB): 2070 / 79080 / 81151
------------------
     ethr =  5.54E-10,  avg # of iterations =  5.8

     total cpu time spent up to now is       81.2 secs

     total energy              =   -1489.14689012 Ry
     estimated scf accuracy    <       0.00000085 Ry

     total magnetization       =     2.48 Bohr mag/cell
     absolute magnetization    =     2.63 Bohr mag/cell
[tb_dev] Currently allocated     7.63E-05 Mbytes, locked:    0 /   2
[tb_pin] Currently allocated     0.00E+00 Mbytes, locked:    0 /   0

     iteration # 24     ecut=    60.00 Ry     beta= 0.30
     Davidson diagonalization with overlap

---- Real-time Memory Report at c_bands before calling an iterative solver
          1274 MiB given to the printing process from OS
             0 MiB allocation reported by mallinfo(arena+hblkhd)
        847208 MiB available memory on the node where the printing process lives
     GPU memory used/free/total (MiB): 2070 / 79080 / 81151
------------------
     ethr =  5.54E-10,  avg # of iterations =  4.2

     total cpu time spent up to now is       84.4 secs

     total energy              =   -1489.14689037 Ry
     estimated scf accuracy    <       0.00000002 Ry

     total magnetization       =     2.48 Bohr mag/cell
     absolute magnetization    =     2.63 Bohr mag/cell
[tb_dev] Currently allocated     7.63E-05 Mbytes, locked:    0 /   2
[tb_pin] Currently allocated     0.00E+00 Mbytes, locked:    0 /   0

     iteration # 25     ecut=    60.00 Ry     beta= 0.30
     Davidson diagonalization with overlap

---- Real-time Memory Report at c_bands before calling an iterative solver
          1274 MiB given to the printing process from OS
             0 MiB allocation reported by mallinfo(arena+hblkhd)
        847241 MiB available memory on the node where the printing process lives
     GPU memory used/free/total (MiB): 2070 / 79080 / 81151
------------------
     ethr =  1.69E-11,  avg # of iterations = 12.5

     total cpu time spent up to now is       89.1 secs

     total energy              =   -1489.14689049 Ry
     estimated scf accuracy    <       0.00000003 Ry

     total magnetization       =     2.48 Bohr mag/cell
     absolute magnetization    =     2.63 Bohr mag/cell
[tb_dev] Currently allocated     7.63E-05 Mbytes, locked:    0 /   2
[tb_pin] Currently allocated     0.00E+00 Mbytes, locked:    0 /   0

     iteration # 26     ecut=    60.00 Ry     beta= 0.30
     Davidson diagonalization with overlap

---- Real-time Memory Report at c_bands before calling an iterative solver
          1274 MiB given to the printing process from OS
             0 MiB allocation reported by mallinfo(arena+hblkhd)
        847263 MiB available memory on the node where the printing process lives
     GPU memory used/free/total (MiB): 2070 / 79080 / 81151
------------------
     ethr =  1.69E-11,  avg # of iterations =  5.9
 
     Magnetic moment per site  (integrated on atomic sphere of radius R)
     atom   1 (R=0.159)  charge= 14.0894  magn=  0.6448
     atom   2 (R=0.159)  charge= 14.0894  magn=  0.6448
     atom   3 (R=0.159)  charge= 14.0894  magn=  0.6448
     atom   4 (R=0.159)  charge=  5.2092  magn=  0.0697
     atom   5 (R=0.159)  charge=  5.2083  magn=  0.0747
     atom   6 (R=0.159)  charge=  5.2083  magn=  0.0747
     atom   7 (R=0.159)  charge=  5.2161  magn=  0.0634
     atom   8 (R=0.159)  charge=  5.2161  magn=  0.0634
     atom   9 (R=0.159)  charge=  5.2161  magn=  0.0634
     atom  10 (R=0.319)  charge=  8.1355  magn= -0.0214

     total cpu time spent up to now is       92.7 secs

     End of self-consistent calculation

 ------ SPIN UP ------------


          k = 0.0000 0.0000 0.0000 ( 11393 PWs)   bands (ev):

   -93.4968 -93.4912 -93.4912 -56.7435 -56.7434 -56.7434 -56.7432 -56.7052
   -56.7052 -56.6986 -56.6895 -56.6895 -52.2042 -24.1217 -24.1217 -24.0793
   -16.8351 -15.1821 -15.1821 -15.1406 -15.1350 -14.9125  -3.0552  -2.9363
    -2.9250  -2.8905  -2.8905  -2.6975  -2.6975  -2.4748  -2.4748  -0.9278
    -0.9278  -0.8798  -0.8707  -0.4867  -0.4867   0.4652   0.7298   0.7298
     0.7479   0.7479   1.0577   1.0577   1.8077   1.8077   1.8220   1.8228
     1.8859   2.2963   3.9586   3.9692   3.9741   3.9741   4.7080   4.7080
     6.0207   8.4776   9.2098   9.2098  10.0228  10.0228  10.5345  10.8939

     occupation numbers 
     1.0000   1.0000   1.0000   1.0000   1.0000   1.0000   1.0000   1.0000
     1.0000   1.0000   1.0000   1.0000   1.0000   1.0000   1.0000   1.0000
     1.0000   1.0000   1.0000   1.0000   1.0000   1.0000   1.0000   1.0000
     1.0000   1.0000   1.0000   1.0000   1.0000   1.0000   1.0000   1.0000
     1.0000   1.0000   1.0000   1.0000   1.0000   1.0000   1.0000   1.0000
     1.0000   1.0000   1.0000   1.0000   1.0141   1.0141   1.0166   1.0167
     1.0314   0.8410   0.0000   0.0000   0.0000   0.0000   0.0000   0.0000
     0.0000   0.0000   0.0000   0.0000   0.0000   0.0000   0.0000   0.0000

          k = 0.0000 0.0000 0.1684 ( 11332 PWs)   bands (ev):

   -93.4968 -93.4912 -93.4912 -56.7435 -56.7433 -56.7433 -56.7432 -56.7052
   -56.7052 -56.6986 -56.6894 -56.6894 -52.2042 -24.1216 -24.1216 -24.0791
   -16.8351 -15.1821 -15.1821 -15.1406 -15.1350 -14.9125  -3.0535  -2.9363
    -2.9249  -2.8904  -2.8904  -2.6975  -2.6975  -2.4747  -2.4747  -0.9277
    -0.9277  -0.8797  -0.8706  -0.4867  -0.4867   0.4295   0.7298   0.7298
     0.7479   0.7479   1.0576   1.0576   1.8077   1.8077   1.8220   1.8227
     1.9912   2.2583   3.9586   3.9695   3.9744   3.9744   4.7080   4.7080
     5.8313   9.0442   9.2073   9.2073  10.0193  10.0193  10.4059  10.8902

     occupation numbers 
     1.0000   1.0000   1.0000   1.0000   1.0000   1.0000   1.0000   1.0000
     1.0000   1.0000   1.0000   1.0000   1.0000   1.0000   1.0000   1.0000
     1.0000   1.0000   1.0000   1.0000   1.0000   1.0000   1.0000   1.0000
     1.0000   1.0000   1.0000   1.0000   1.0000   1.0000   1.0000   1.0000
     1.0000   1.0000   1.0000   1.0000   1.0000   1.0000   1.0000   1.0000
     1.0000   1.0000   1.0000   1.0000   1.0141   1.0141   1.0166   1.0167
     1.0660   0.9225   0.0000   0.0000   0.0000   0.0000   0.0000   0.0000
     0.0000   0.0000   0.0000   0.0000   0.0000   0.0000   0.0000   0.0000

          k = 0.0000 0.1925 0.0000 ( 11360 PWs)   bands (ev):

   -93.4963 -93.4915 -93.4914 -56.7520 -56.7496 -56.7335 -56.7324 -56.7099
   -56.7064 -56.6978 -56.6899 -56.6897 -52.2042 -24.1218 -24.1217 -24.0791
   -16.7322 -15.3131 -15.2295 -15.1430 -15.0858 -14.9168  -3.3316  -3.0730
    -2.9381  -2.9185  -2.7964  -2.7931  -2.6283  -2.1139  -1.9222  -1.2206
    -1.1645  -1.0238  -0.9531  -0.1857  -0.1204   0.1566   0.2361   0.7071
     0.8293   0.8960   1.1855   1.4136   1.5531   1.5660   1.9125   1.9846
     1.9895   2.4690   3.9628   3.9863   4.0084   4.0681   4.4249   4.6369
     6.2278   7.5380   8.5269   8.7933   9.2390  10.8903  11.1197  11.6895

     occupation numbers 
     1.0000   1.0000   1.0000   1.0000   1.0000   1.0000   1.0000   1.0000
     1.0000   1.0000   1.0000   1.0000   1.0000   1.0000   1.0000   1.0000
     1.0000   1.0000   1.0000   1.0000   1.0000   1.0000   1.0000   1.0000
     1.0000   1.0000   1.0000   1.0000   1.0000   1.0000   1.0000   1.0000
     1.0000   1.0000   1.0000   1.0000   1.0000   1.0000   1.0000   1.0000
     1.0000   1.0000   1.0000   1.0000   1.0003   1.0004   1.0394   1.0638
     1.0654   0.3843   0.0000   0.0000   0.0000   0.0000   0.0000   0.0000
     0.0000   0.0000   0.0000   0.0000   0.0000   0.0000   0.0000   0.0000

          k = 0.0000 0.1925 0.1684 ( 11375 PWs)   bands (ev):

   -93.4963 -93.4915 -93.4914 -56.7519 -56.7496 -56.7335 -56.7323 -56.7100
   -56.7064 -56.6980 -56.6899 -56.6897 -52.2042 -24.1218 -24.1217 -24.0792
   -16.7322 -15.3131 -15.2295 -15.1430 -15.0858 -14.9168  -3.3315  -3.0730
    -2.9368  -2.9185  -2.7965  -2.7932  -2.6283  -2.1139  -1.9221  -1.2206
    -1.1646  -1.0237  -0.9531  -0.1856  -0.1203   0.1568   0.2345   0.6777
     0.8292   0.8960   1.1855   1.4121   1.5531   1.5661   1.9123   1.9848
     2.0654   2.4481   3.9636   3.9864   4.0082   4.0684   4.4353   4.6353
     6.0612   7.5313   8.5222   9.1553   9.3823  10.8321  11.0910  11.1315

     occupation numbers 
     1.0000   1.0000   1.0000   1.0000   1.0000   1.0000   1.0000   1.0000
     1.0000   1.0000   1.0000   1.0000   1.0000   1.0000   1.0000   1.0000
     1.0000   1.0000   1.0000   1.0000   1.0000   1.0000   1.0000   1.0000
     1.0000   1.0000   1.0000   1.0000   1.0000   1.0000   1.0000   1.0000
     1.0000   1.0000   1.0000   1.0000   1.0000   1.0000   1.0000   1.0000
     1.0000   1.0000   1.0000   1.0000   1.0003   1.0004   1.0394   1.0639
     1.0828   0.4373   0.0000   0.0000   0.0000   0.0000   0.0000   0.0000
     0.0000   0.0000   0.0000   0.0000   0.0000   0.0000   0.0000   0.0000

          k = 0.0000 0.3849 0.0000 ( 11350 PWs)   bands (ev):

   -93.4952 -93.4923 -93.4917 -56.7580 -56.7472 -56.7240 -56.7224 -56.7222
   -56.7100 -56.6959 -56.6913 -56.6903 -52.2042 -24.1220 -24.1218 -24.0791
   -16.4458 -15.6272 -15.2732 -15.1886 -15.0192 -14.9327  -3.7462  -2.9639
    -2.9554  -2.9031  -2.6203  -2.5280  -2.4619  -1.9348  -1.6686  -1.3315
    -1.3125  -1.2296  -0.7998  -0.7905  -0.3693   0.1134   0.4528   0.9282
     1.0382   1.2319   1.2804   1.2872   1.3686   1.7523   1.7642   2.0423
     2.0509   3.0288   3.9327   3.9398   3.9916   4.0049   4.3885   4.4321
     5.6758   6.8017   7.9432   8.5573   9.1837   9.6698  11.4291  11.8177

     occupation numbers 
     1.0000   1.0000   1.0000   1.0000   1.0000   1.0000   1.0000   1.0000
     1.0000   1.0000   1.0000   1.0000   1.0000   1.0000   1.0000   1.0000
     1.0000   1.0000   1.0000   1.0000   1.0000   1.0000   1.0000   1.0000
     1.0000   1.0000   1.0000   1.0000   1.0000   1.0000   1.0000   1.0000
     1.0000   1.0000   1.0000   1.0000   1.0000   1.0000   1.0000   1.0000
     1.0000   1.0000   1.0000   1.0000   1.0000   1.0071   1.0083   1.0797
     1.0812   0.0002   0.0000   0.0000   0.0000   0.0000   0.0000   0.0000
     0.0000   0.0000   0.0000   0.0000   0.0000   0.0000   0.0000   0.0000

          k = 0.0000 0.3849 0.1684 ( 11369 PWs)   bands (ev):

   -93.4952 -93.4923 -93.4917 -56.7579 -56.7472 -56.7240 -56.7224 -56.7222
   -56.7100 -56.6960 -56.6914 -56.6903 -52.2042 -24.1220 -24.1218 -24.0792
   -16.4458 -15.6272 -15.2732 -15.1886 -15.0192 -14.9327  -3.7461  -2.9641
    -2.9556  -2.9031  -2.6194  -2.5280  -2.4619  -1.9348  -1.6686  -1.3311
    -1.3125  -1.2297  -0.7998  -0.7901  -0.3693   0.1136   0.4526   0.9282
     1.0240   1.2318   1.2805   1.2872   1.3689   1.7477   1.7641   2.0491
     2.0628   3.0256   3.9333   3.9696   3.9917   4.0094   4.3887   4.4218
     5.6739   6.6974   7.9367   8.5525   9.1965  10.0205  11.5054  11.7518

     occupation numbers 
     1.0000   1.0000   1.0000   1.0000   1.0000   1.0000   1.0000   1.0000
     1.0000   1.0000   1.0000   1.0000   1.0000   1.0000   1.0000   1.0000
     1.0000   1.0000   1.0000   1.0000   1.0000   1.0000   1.0000   1.0000
     1.0000   1.0000   1.0000   1.0000   1.0000   1.0000   1.0000   1.0000
     1.0000   1.0000   1.0000   1.0000   1.0000   1.0000   1.0000   1.0000
     1.0000   1.0000   1.0000   1.0000   1.0000   1.0067   1.0083   1.0809
     1.0826   0.0002   0.0000   0.0000   0.0000   0.0000   0.0000   0.0000
     0.0000   0.0000   0.0000   0.0000   0.0000   0.0000   0.0000   0.0000

          k = 0.0000-0.5774 0.0000 ( 11352 PWs)   bands (ev):

   -93.4937 -93.4937 -93.4918 -56.7601 -56.7368 -56.7367 -56.7183 -56.7161
   -56.7158 -56.6935 -56.6935 -56.6905 -52.2042 -24.1222 -24.1219 -24.0791
   -16.0446 -16.0407 -15.2895 -15.2128 -14.9681 -14.9643  -3.8977  -3.0165
    -3.0087  -2.5168  -2.5145  -2.2080  -2.1785  -2.1699  -2.0437  -1.4300
    -1.4247  -1.2710  -0.9151  -0.9144  -0.4151   0.2326   0.9372   0.9639
     0.9641   1.1344   1.2453   1.2474   1.6100   1.7954   1.8018   1.9630
     1.9698   3.7332   3.7864   3.8612   3.9894   4.1078   4.2399   4.4556
     4.5850   7.4812   7.7443   8.1265   8.3423  10.6829  10.9283  11.2105

     occupation numbers 
     1.0000   1.0000   1.0000   1.0000   1.0000   1.0000   1.0000   1.0000
     1.0000   1.0000   1.0000   1.0000   1.0000   1.0000   1.0000   1.0000
     1.0000   1.0000   1.0000   1.0000   1.0000   1.0000   1.0000   1.0000
     1.0000   1.0000   1.0000   1.0000   1.0000   1.0000   1.0000   1.0000
     1.0000   1.0000   1.0000   1.0000   1.0000   1.0000   1.0000   1.0000
     1.0000   1.0000   1.0000   1.0000   1.0008   1.0122   1.0132   1.0564
     1.0588   0.0000   0.0000   0.0000   0.0000   0.0000   0.0000   0.0000
     0.0000   0.0000   0.0000   0.0000   0.0000   0.0000   0.0000   0.0000

          k = 0.0000-0.5774 0.1684 ( 11376 PWs)   bands (ev):

   -93.4937 -93.4937 -93.4918 -56.7601 -56.7369 -56.7368 -56.7183 -56.7161
   -56.7158 -56.6936 -56.6935 -56.6905 -52.2042 -24.1222 -24.1219 -24.0792
   -16.0446 -16.0407 -15.2895 -15.2128 -14.9681 -14.9644  -3.8977  -3.0168
    -3.0089  -2.5168  -2.5145  -2.2079  -2.1782  -2.1697  -2.0437  -1.4293
    -1.4243  -1.2710  -0.9151  -0.9144  -0.4150   0.2330   0.9371   0.9619
     0.9627   1.1344   1.2454   1.2475   1.6099   1.7988   1.8037   1.9582
     1.9672   3.6477   3.7561   3.9866   4.0035   4.1511   4.1981   4.4530
     4.5850   7.4451   7.7372   8.0818   8.3384  10.8206  11.1044  11.2984

     occupation numbers 
     1.0000   1.0000   1.0000   1.0000   1.0000   1.0000   1.0000   1.0000
     1.0000   1.0000   1.0000   1.0000   1.0000   1.0000   1.0000   1.0000
     1.0000   1.0000   1.0000   1.0000   1.0000   1.0000   1.0000   1.0000
     1.0000   1.0000   1.0000   1.0000   1.0000   1.0000   1.0000   1.0000
     1.0000   1.0000   1.0000   1.0000   1.0000   1.0000   1.0000   1.0000
     1.0000   1.0000   1.0000   1.0000   1.0008   1.0127   1.0135   1.0548
     1.0579   0.0000   0.0000   0.0000   0.0000   0.0000   0.0000   0.0000
     0.0000   0.0000   0.0000   0.0000   0.0000   0.0000   0.0000   0.0000

          k = 0.1667 0.2887 0.0000 ( 11373 PWs)   bands (ev):

   -93.4955 -93.4918 -93.4918 -56.7531 -56.7529 -56.7254 -56.7253 -56.7188
   -56.7084 -56.6965 -56.6906 -56.6905 -52.2042 -24.1220 -24.1218 -24.0791
   -16.5375 -15.4271 -15.4242 -15.0788 -15.0756 -14.9271  -3.4129  -3.4068
    -2.9349  -2.7164  -2.7100  -2.7096  -2.4987  -1.7872  -1.7865  -1.2511
    -1.2480  -1.0943  -1.0887  -0.6529  -0.0433   0.1522   0.1563   0.8931
     1.0610   1.0617   1.2929   1.3658   1.3666   1.6278   1.9351   1.9353
     2.0591   2.8327   3.9339   3.9399   3.9976   4.1880   4.1934   4.5594
     6.5495   6.6427   6.8960   9.3580   9.9409  10.3274  10.5029  10.8365

     occupation numbers 
     1.0000   1.0000   1.0000   1.0000   1.0000   1.0000   1.0000   1.0000
     1.0000   1.0000   1.0000   1.0000   1.0000   1.0000   1.0000   1.0000
     1.0000   1.0000   1.0000   1.0000   1.0000   1.0000   1.0000   1.0000
     1.0000   1.0000   1.0000   1.0000   1.0000   1.0000   1.0000   1.0000
     1.0000   1.0000   1.0000   1.0000   1.0000   1.0000   1.0000   1.0000
     1.0000   1.0000   1.0000   1.0000   1.0000   1.0011   1.0468   1.0469
     1.0823   0.0073   0.0000   0.0000   0.0000   0.0000   0.0000   0.0000
     0.0000   0.0000   0.0000   0.0000   0.0000   0.0000   0.0000   0.0000

          k = 0.1667 0.2887 0.1684 ( 11359 PWs)   bands (ev):

   -93.4955 -93.4918 -93.4918 -56.7530 -56.7528 -56.7253 -56.7252 -56.7188
   -56.7084 -56.6966 -56.6905 -56.6905 -52.2042 -24.1219 -24.1218 -24.0792
   -16.5375 -15.4271 -15.4242 -15.0788 -15.0756 -14.9272  -3.4129  -3.4068
    -2.9352  -2.7160  -2.7100  -2.7089  -2.4987  -1.7872  -1.7866  -1.2509
    -1.2479  -1.0943  -1.0887  -0.6524  -0.0433   0.1523   0.1564   0.8787
     1.0610   1.0617   1.2846   1.3659   1.3667   1.6278   1.9348   1.9352
     2.0932   2.8206   3.9330   3.9391   4.0324   4.1889   4.1943   4.5594
     6.4589   6.5892   6.8951   9.7351   9.9985  10.3208  10.5125  10.8344

     occupation numbers 
     1.0000   1.0000   1.0000   1.0000   1.0000   1.0000   1.0000   1.0000
     1.0000   1.0000   1.0000   1.0000   1.0000   1.0000   1.0000   1.0000
     1.0000   1.0000   1.0000   1.0000   1.0000   1.0000   1.0000   1.0000
     1.0000   1.0000   1.0000   1.0000   1.0000   1.0000   1.0000   1.0000
     1.0000   1.0000   1.0000   1.0000   1.0000   1.0000   1.0000   1.0000
     1.0000   1.0000   1.0000   1.0000   1.0000   1.0011   1.0467   1.0469
     1.0825   0.0088   0.0000   0.0000   0.0000   0.0000   0.0000   0.0000
     0.0000   0.0000   0.0000   0.0000   0.0000   0.0000   0.0000   0.0000

          k = 0.1667 0.4811 0.0000 ( 11356 PWs)   bands (ev):

   -93.4942 -93.4928 -93.4921 -56.7559 -56.7460 -56.7329 -56.7185 -56.7181
   -56.7124 -56.6944 -56.6922 -56.6910 -52.2042 -24.1221 -24.1219 -24.0792
   -16.1932 -15.7855 -15.4983 -15.0872 -15.0033 -14.9537  -3.6789  -3.1995
    -3.0601  -2.6046  -2.4298  -2.4264  -2.2962  -2.0125  -1.9722  -1.4748
    -1.4482  -1.2886  -0.8670  -0.5955  -0.4766   0.2898   0.6431   0.9552
     1.1170   1.2542   1.2726   1.3493   1.5094   1.7070   1.7512   1.9233
     1.9531   3.5198   3.7512   3.7926   3.8978   4.2941   4.4404   4.5053
     5.0517   6.3394   7.3243   8.6359   9.8653  10.1042  10.3885  11.5995

     occupation numbers 
     1.0000   1.0000   1.0000   1.0000   1.0000   1.0000   1.0000   1.0000
     1.0000   1.0000   1.0000   1.0000   1.0000   1.0000   1.0000   1.0000
     1.0000   1.0000   1.0000   1.0000   1.0000   1.0000   1.0000   1.0000
     1.0000   1.0000   1.0000   1.0000   1.0000   1.0000   1.0000   1.0000
     1.0000   1.0000   1.0000   1.0000   1.0000   1.0000   1.0000   1.0000
     1.0000   1.0000   1.0000   1.0000   1.0001   1.0038   1.0070   1.0429
     1.0530   0.0000   0.0000   0.0000   0.0000   0.0000   0.0000   0.0000
     0.0000   0.0000   0.0000   0.0000   0.0000   0.0000   0.0000   0.0000

          k = 0.1667 0.4811 0.1684 ( 11345 PWs)   bands (ev):

   -93.4942 -93.4928 -93.4921 -56.7559 -56.7460 -56.7329 -56.7184 -56.7181
   -56.7123 -56.6944 -56.6922 -56.6910 -52.2041 -24.1221 -24.1218 -24.0791
   -16.1932 -15.7855 -15.4983 -15.0872 -15.0033 -14.9537  -3.6789  -3.1996
    -3.0604  -2.6047  -2.4296  -2.4262  -2.2960  -2.0124  -1.9722  -1.4743
    -1.4477  -1.2884  -0.8670  -0.5955  -0.4765   0.2901   0.6431   0.9533
     1.1170   1.2542   1.2726   1.3463   1.5098   1.7070   1.7493   1.9230
     1.9601   3.4288   3.7415   3.8877   3.9177   4.2998   4.4345   4.5055
     5.0670   6.3460   7.2379   8.5952   9.8455  10.1102  10.6667  11.7293

     occupation numbers 
     1.0000   1.0000   1.0000   1.0000   1.0000   1.0000   1.0000   1.0000
     1.0000   1.0000   1.0000   1.0000   1.0000   1.0000   1.0000   1.0000
     1.0000   1.0000   1.0000   1.0000   1.0000   1.0000   1.0000   1.0000
     1.0000   1.0000   1.0000   1.0000   1.0000   1.0000   1.0000   1.0000
     1.0000   1.0000   1.0000   1.0000   1.0000   1.0000   1.0000   1.0000
     1.0000   1.0000   1.0000   1.0000   1.0001   1.0038   1.0068   1.0428
     1.0554   0.0000   0.0000   0.0000   0.0000   0.0000   0.0000   0.0000
     0.0000   0.0000   0.0000   0.0000   0.0000   0.0000   0.0000   0.0000

          k = 0.3333 0.5774 0.0000 ( 11370 PWs)   bands (ev):

   -93.4931 -93.4931 -93.4931 -56.7465 -56.7462 -56.7462 -56.7152 -56.7152
   -56.7148 -56.6926 -56.6925 -56.6925 -52.2042 -24.1221 -24.1221 -24.0792
   -15.8491 -15.8435 -15.8435 -15.0046 -14.9994 -14.9994  -3.3185  -3.3073
    -3.3073  -2.4357  -2.4357  -2.4346  -2.1388  -2.1388  -2.1359  -1.5574
    -1.5436  -1.5436  -0.5164  -0.5164  -0.5139   0.6450   0.6471   0.6471
     1.3150   1.3174   1.3174   1.5190   1.5206   1.5206   1.7761   1.7833
     1.7833   3.6434   3.6812   3.6812   4.3949   4.5101   4.5101   4.5141
     5.0220   5.0220   7.8203   8.7075   8.7075  11.1276  11.4881  11.4881

     occupation numbers 
     1.0000   1.0000   1.0000   1.0000   1.0000   1.0000   1.0000   1.0000
     1.0000   1.0000   1.0000   1.0000   1.0000   1.0000   1.0000   1.0000
     1.0000   1.0000   1.0000   1.0000   1.0000   1.0000   1.0000   1.0000
     1.0000   1.0000   1.0000   1.0000   1.0000   1.0000   1.0000   1.0000
     1.0000   1.0000   1.0000   1.0000   1.0000   1.0000   1.0000   1.0000
     1.0000   1.0000   1.0000   1.0001   1.0002   1.0002   1.0097   1.0106
     1.0106   0.0000   0.0000   0.0000   0.0000   0.0000   0.0000   0.0000
     0.0000   0.0000   0.0000   0.0000   0.0000   0.0000   0.0000   0.0000

          k = 0.3333 0.5774 0.1684 ( 11352 PWs)   bands (ev):

   -93.4931 -93.4931 -93.4931 -56.7464 -56.7462 -56.7462 -56.7151 -56.7151
   -56.7148 -56.6926 -56.6925 -56.6925 -52.2042 -24.1220 -24.1220 -24.0791
   -15.8491 -15.8435 -15.8435 -15.0046 -14.9993 -14.9993  -3.3187  -3.3074
    -3.3074  -2.4357  -2.4357  -2.4347  -2.1388  -2.1388  -2.1359  -1.5566
    -1.5432  -1.5432  -0.5164  -0.5164  -0.5139   0.6452   0.6472   0.6472
     1.3142   1.3170   1.3170   1.5191   1.5207   1.5207   1.7778   1.7841
     1.7841   3.6040   3.6670   3.6670   4.4514   4.5102   4.5102   4.5141
     5.0496   5.0496   7.7664   8.6447   8.6447  11.2863  11.6987  11.6987

     occupation numbers 
     1.0000   1.0000   1.0000   1.0000   1.0000   1.0000   1.0000   1.0000
     1.0000   1.0000   1.0000   1.0000   1.0000   1.0000   1.0000   1.0000
     1.0000   1.0000   1.0000   1.0000   1.0000   1.0000   1.0000   1.0000
     1.0000   1.0000   1.0000   1.0000   1.0000   1.0000   1.0000   1.0000
     1.0000   1.0000   1.0000   1.0000   1.0000   1.0000   1.0000   1.0000
     1.0000   1.0000   1.0000   1.0001   1.0002   1.0002   1.0099   1.0107
     1.0107   0.0000   0.0000   0.0000   0.0000   0.0000   0.0000   0.0000
     0.0000   0.0000   0.0000   0.0000   0.0000   0.0000   0.0000   0.0000

          k =-0.1667-0.2887 0.1684 ( 11359 PWs)   bands (ev):

   -93.4955 -93.4918 -93.4918 -56.7530 -56.7528 -56.7254 -56.7252 -56.7188
   -56.7084 -56.6966 -56.6906 -56.6905 -52.2042 -24.1219 -24.1218 -24.0792
   -16.5375 -15.4271 -15.4242 -15.0788 -15.0756 -14.9272  -3.4129  -3.4068
    -2.9350  -2.7160  -2.7100  -2.7090  -2.4987  -1.7872  -1.7865  -1.2510
    -1.2479  -1.0942  -1.0886  -0.6526  -0.0433   0.1522   0.1564   0.8786
     1.0610   1.0617   1.2853   1.3659   1.3667   1.6278   1.9346   1.9351
     2.0861   2.8438   3.9347   3.9409   4.0012   4.1880   4.1935   4.5594
     6.4881   6.5875   6.8872   9.6909  10.0164  10.3275  10.5703  10.8420

     occupation numbers 
     1.0000   1.0000   1.0000   1.0000   1.0000   1.0000   1.0000   1.0000
     1.0000   1.0000   1.0000   1.0000   1.0000   1.0000   1.0000   1.0000
     1.0000   1.0000   1.0000   1.0000   1.0000   1.0000   1.0000   1.0000
     1.0000   1.0000   1.0000   1.0000   1.0000   1.0000   1.0000   1.0000
     1.0000   1.0000   1.0000   1.0000   1.0000   1.0000   1.0000   1.0000
     1.0000   1.0000   1.0000   1.0000   1.0000   1.0011   1.0467   1.0468
     1.0831   0.0061   0.0000   0.0000   0.0000   0.0000   0.0000   0.0000
     0.0000   0.0000   0.0000   0.0000   0.0000   0.0000   0.0000   0.0000

          k =-0.1667-0.4811 0.1684 ( 11345 PWs)   bands (ev):

   -93.4942 -93.4928 -93.4921 -56.7559 -56.7460 -56.7329 -56.7184 -56.7181
   -56.7123 -56.6944 -56.6922 -56.6910 -52.2041 -24.1221 -24.1218 -24.0791
   -16.1931 -15.7855 -15.4983 -15.0872 -15.0033 -14.9537  -3.6789  -3.1996
    -3.0603  -2.6047  -2.4296  -2.4263  -2.2961  -2.0125  -1.9722  -1.4741
    -1.4476  -1.2883  -0.8670  -0.5955  -0.4765   0.2899   0.6427   0.9523
     1.1171   1.2542   1.2728   1.3471   1.5099   1.7067   1.7506   1.9216
     1.9543   3.5246   3.7549   3.7991   3.8986   4.2948   4.4384   4.5053
     5.0476   6.3288   7.2908   8.6517   9.9398  10.1139  10.5429  11.5768

     occupation numbers 
     1.0000   1.0000   1.0000   1.0000   1.0000   1.0000   1.0000   1.0000
     1.0000   1.0000   1.0000   1.0000   1.0000   1.0000   1.0000   1.0000
     1.0000   1.0000   1.0000   1.0000   1.0000   1.0000   1.0000   1.0000
     1.0000   1.0000   1.0000   1.0000   1.0000   1.0000   1.0000   1.0000
     1.0000   1.0000   1.0000   1.0000   1.0000   1.0000   1.0000   1.0000
     1.0000   1.0000   1.0000   1.0000   1.0001   1.0038   1.0070   1.0423
     1.0534   0.0000   0.0000   0.0000   0.0000   0.0000   0.0000   0.0000
     0.0000   0.0000   0.0000   0.0000   0.0000   0.0000   0.0000   0.0000

          k =-0.3333-0.5774 0.1684 ( 11352 PWs)   bands (ev):

   -93.4931 -93.4931 -93.4931 -56.7465 -56.7462 -56.7462 -56.7151 -56.7151
   -56.7148 -56.6926 -56.6925 -56.6925 -52.2042 -24.1220 -24.1220 -24.0791
   -15.8491 -15.8435 -15.8435 -15.0046 -14.9993 -14.9993  -3.3187  -3.3074
    -3.3074  -2.4358  -2.4358  -2.4348  -2.1388  -2.1388  -2.1359  -1.5564
    -1.5431  -1.5431  -0.5164  -0.5164  -0.5139   0.6442   0.6468   0.6468
     1.3150   1.3174   1.3174   1.5190   1.5206   1.5206   1.7746   1.7825
     1.7825   3.6492   3.6833   3.6833   4.3868   4.5102   4.5102   4.5142
     5.0171   5.0171   7.8413   8.7358   8.7358  11.0929  11.4467  11.4468

     occupation numbers 
     1.0000   1.0000   1.0000   1.0000   1.0000   1.0000   1.0000   1.0000
     1.0000   1.0000   1.0000   1.0000   1.0000   1.0000   1.0000   1.0000
     1.0000   1.0000   1.0000   1.0000   1.0000   1.0000   1.0000   1.0000
     1.0000   1.0000   1.0000   1.0000   1.0000   1.0000   1.0000   1.0000
     1.0000   1.0000   1.0000   1.0000   1.0000   1.0000   1.0000   1.0000
     1.0000   1.0000   1.0000   1.0001   1.0002   1.0002   1.0095   1.0105
     1.0105   0.0000   0.0000   0.0000   0.0000   0.0000   0.0000   0.0000
     0.0000   0.0000   0.0000   0.0000   0.0000   0.0000   0.0000   0.0000

 ------ SPIN DOWN ----------


          k = 0.0000 0.0000 0.0000 ( 11393 PWs)   bands (ev):

   -92.7064 -92.7006 -92.7006 -56.0263 -56.0259 -56.0259 -56.0256 -55.9860
   -55.9860 -55.8249 -55.8153 -55.8153 -52.2084 -24.1273 -24.1273 -24.0836
   -16.7234 -15.0671 -15.0671 -15.0129 -15.0014 -14.7911  -2.7620  -2.7465
    -2.7125  -2.7125  -2.7076  -2.4448  -2.4448  -2.3726  -2.3726  -0.6436
    -0.6436  -0.5659  -0.5512  -0.4018  -0.4018   0.6451   1.1425   1.1425
     1.4122   1.4122   1.7908   1.7908   1.9758   2.4662   2.4662   2.4847
     2.4887   2.9865   4.3079   4.3155   4.3155   4.3205   5.0447   5.0447
     6.0253   8.5449   9.1607   9.1607   9.8871   9.8871  10.4557  10.7045

     occupation numbers 
     1.0000   1.0000   1.0000   1.0000   1.0000   1.0000   1.0000   1.0000
     1.0000   1.0000   1.0000   1.0000   1.0000   1.0000   1.0000   1.0000
     1.0000   1.0000   1.0000   1.0000   1.0000   1.0000   1.0000   1.0000
     1.0000   1.0000   1.0000   1.0000   1.0000   1.0000   1.0000   1.0000
     1.0000   1.0000   1.0000   1.0000   1.0000   1.0000   1.0000   1.0000
     1.0000   1.0000   1.0116   1.0116   1.0608   0.3912   0.3912   0.3463
     0.3370   0.0005   0.0000   0.0000   0.0000   0.0000   0.0000   0.0000
     0.0000   0.0000   0.0000   0.0000   0.0000   0.0000   0.0000   0.0000

          k = 0.0000 0.0000 0.1684 ( 11332 PWs)   bands (ev):

   -92.7064 -92.7006 -92.7006 -56.0262 -56.0259 -56.0259 -56.0255 -55.9860
   -55.9860 -55.8249 -55.8152 -55.8152 -52.2084 -24.1272 -24.1272 -24.0834
   -16.7234 -15.0671 -15.0671 -15.0129 -15.0014 -14.7912  -2.7619  -2.7464
    -2.7124  -2.7124  -2.7055  -2.4448  -2.4448  -2.3725  -2.3725  -0.6436
    -0.6436  -0.5659  -0.5512  -0.4018  -0.4018   0.5977   1.1425   1.1425
     1.4122   1.4122   1.7908   1.7908   2.0906   2.4662   2.4662   2.4847
     2.4887   2.9482   4.3080   4.3158   4.3158   4.3208   5.0447   5.0447
     5.8406   9.1052   9.1580   9.1580   9.8836   9.8836  10.3709  10.6962

     occupation numbers 
     1.0000   1.0000   1.0000   1.0000   1.0000   1.0000   1.0000   1.0000
     1.0000   1.0000   1.0000   1.0000   1.0000   1.0000   1.0000   1.0000
     1.0000   1.0000   1.0000   1.0000   1.0000   1.0000   1.0000   1.0000
     1.0000   1.0000   1.0000   1.0000   1.0000   1.0000   1.0000   1.0000
     1.0000   1.0000   1.0000   1.0000   1.0000   1.0000   1.0000   1.0000
     1.0000   1.0000   1.0116   1.0116   1.0827   0.3912   0.3912   0.3462
     0.3371   0.0010   0.0000   0.0000   0.0000   0.0000   0.0000   0.0000
     0.0000   0.0000   0.0000   0.0000   0.0000   0.0000   0.0000   0.0000

          k = 0.0000 0.1925 0.0000 ( 11360 PWs)   bands (ev):

   -92.7059 -92.7009 -92.7008 -56.0349 -56.0324 -56.0157 -56.0144 -55.9910
   -55.9873 -55.8241 -55.8157 -55.8155 -52.2084 -24.1275 -24.1274 -24.0834
   -16.6201 -15.1940 -15.1124 -15.0151 -14.9597 -14.7950  -3.1650  -2.9188
    -2.7259  -2.6301  -2.5973  -2.5446  -2.3805  -1.9897  -1.7858  -1.0179
    -0.9548  -0.7056  -0.6453   0.0002   0.0670   0.4326   0.5711   0.8994
     1.7244   1.8358   1.8441   1.8967   2.1888   2.2451   2.2540   2.5432
     2.6068   3.0191   4.3058   4.3512   4.3607   4.4024   4.7601   4.9688
     6.2377   7.4439   8.4469   8.8381   9.1335  10.8888  11.0231  11.6170

     occupation numbers 
     1.0000   1.0000   1.0000   1.0000   1.0000   1.0000   1.0000   1.0000
     1.0000   1.0000   1.0000   1.0000   1.0000   1.0000   1.0000   1.0000
     1.0000   1.0000   1.0000   1.0000   1.0000   1.0000   1.0000   1.0000
     1.0000   1.0000   1.0000   1.0000   1.0000   1.0000   1.0000   1.0000
     1.0000   1.0000   1.0000   1.0000   1.0000   1.0000   1.0000   1.0000
     1.0049   1.0192   1.0210   1.0346   1.0285   0.9470   0.9308   0.2235
     0.1263   0.0003   0.0000   0.0000   0.0000   0.0000   0.0000   0.0000
     0.0000   0.0000   0.0000   0.0000   0.0000   0.0000   0.0000   0.0000

          k = 0.0000 0.1925 0.1684 ( 11375 PWs)   bands (ev):

   -92.7060 -92.7009 -92.7008 -56.0349 -56.0324 -56.0157 -56.0144 -55.9911
   -55.9873 -55.8242 -55.8157 -55.8156 -52.2084 -24.1275 -24.1273 -24.0835
   -16.6201 -15.1940 -15.1124 -15.0151 -14.9597 -14.7950  -3.1650  -2.9188
    -2.7259  -2.6301  -2.5957  -2.5446  -2.3805  -1.9897  -1.7858  -1.0179
    -0.9549  -0.7054  -0.6453   0.0003   0.0670   0.4331   0.5655   0.8646
     1.7247   1.8303   1.8441   1.8967   2.2448   2.2537   2.3015   2.5431
     2.6067   2.9732   4.3069   4.3513   4.3604   4.4028   4.7733   4.9668
     6.0712   7.4372   8.4421   9.0399   9.4394  10.8626  11.0110  11.1426

     occupation numbers 
     1.0000   1.0000   1.0000   1.0000   1.0000   1.0000   1.0000   1.0000
     1.0000   1.0000   1.0000   1.0000   1.0000   1.0000   1.0000   1.0000
     1.0000   1.0000   1.0000   1.0000   1.0000   1.0000   1.0000   1.0000
     1.0000   1.0000   1.0000   1.0000   1.0000   1.0000   1.0000   1.0000
     1.0000   1.0000   1.0000   1.0000   1.0000   1.0000   1.0000   1.0000
     1.0049   1.0181   1.0210   1.0346   0.9477   0.9312   0.8286   0.2235
     0.1264   0.0006   0.0000   0.0000   0.0000   0.0000   0.0000   0.0000
     0.0000   0.0000   0.0000   0.0000   0.0000   0.0000   0.0000   0.0000

          k = 0.0000 0.3849 0.0000 ( 11350 PWs)   bands (ev):

   -92.7047 -92.7018 -92.7011 -56.0412 -56.0300 -56.0057 -56.0041 -56.0038
   -55.9911 -55.8221 -55.8172 -55.8161 -52.2084 -24.1277 -24.1275 -24.0834
   -16.3324 -15.5096 -15.1574 -15.0601 -14.8941 -14.8097  -3.5756  -2.7641
    -2.7324  -2.7296  -2.3763  -2.2889  -2.2247  -1.7666  -1.4838  -1.0392
    -1.0353  -0.9796  -0.6205  -0.5658  -0.0739   0.3087   0.6630   1.2145
     1.8772   1.8858   2.0138   2.0363   2.2379   2.2479   2.4002   2.6236
     2.7247   3.0846   4.2749   4.2894   4.3391   4.3906   4.7062   4.7547
     5.5737   6.8131   7.8573   8.4224   9.1891   9.7420  11.4267  11.8422

     occupation numbers 
     1.0000   1.0000   1.0000   1.0000   1.0000   1.0000   1.0000   1.0000
     1.0000   1.0000   1.0000   1.0000   1.0000   1.0000   1.0000   1.0000
     1.0000   1.0000   1.0000   1.0000   1.0000   1.0000   1.0000   1.0000
     1.0000   1.0000   1.0000   1.0000   1.0000   1.0000   1.0000   1.0000
     1.0000   1.0000   1.0000   1.0000   1.0000   1.0000   1.0000   1.0000
     1.0291   1.0314   1.0729   1.0785   0.9596   0.9421   0.5666   0.1068
     0.0335   0.0001   0.0000   0.0000   0.0000   0.0000   0.0000   0.0000
     0.0000   0.0000   0.0000   0.0000   0.0000   0.0000   0.0000   0.0000

          k = 0.0000 0.3849 0.1684 ( 11369 PWs)   bands (ev):

   -92.7047 -92.7018 -92.7011 -56.0411 -56.0299 -56.0058 -56.0041 -56.0038
   -55.9911 -55.8221 -55.8173 -55.8161 -52.2084 -24.1277 -24.1275 -24.0836
   -16.3324 -15.5097 -15.1574 -15.0601 -14.8941 -14.8097  -3.5756  -2.7642
    -2.7324  -2.7299  -2.3763  -2.2878  -2.2246  -1.7666  -1.4838  -1.0392
    -1.0353  -0.9792  -0.6205  -0.5650  -0.0740   0.3090   0.6627   1.1961
     1.8772   1.8858   2.0138   2.0363   2.2282   2.2481   2.4001   2.6221
     2.8207   3.0183   4.2804   4.3097   4.3467   4.3906   4.7064   4.7440
     5.5728   6.7059   7.8508   8.4181   9.2003  10.0983  11.5030  11.7980

     occupation numbers 
     1.0000   1.0000   1.0000   1.0000   1.0000   1.0000   1.0000   1.0000
     1.0000   1.0000   1.0000   1.0000   1.0000   1.0000   1.0000   1.0000
     1.0000   1.0000   1.0000   1.0000   1.0000   1.0000   1.0000   1.0000
     1.0000   1.0000   1.0000   1.0000   1.0000   1.0000   1.0000   1.0000
     1.0000   1.0000   1.0000   1.0000   1.0000   1.0000   1.0000   1.0000
     1.0290   1.0314   1.0729   1.0785   0.9756   0.9417   0.5670   0.1084
     0.0088   0.0003   0.0000   0.0000   0.0000   0.0000   0.0000   0.0000
     0.0000   0.0000   0.0000   0.0000   0.0000   0.0000   0.0000   0.0000

          k = 0.0000-0.5774 0.0000 ( 11352 PWs)   bands (ev):

   -92.7032 -92.7032 -92.7013 -56.0433 -56.0192 -56.0189 -55.9998 -55.9975
   -55.9971 -55.8195 -55.8195 -55.8163 -52.2084 -24.1278 -24.1275 -24.0834
   -15.9306 -15.9242 -15.1744 -15.0840 -14.8453 -14.8386  -3.7251  -2.8013
    -2.7925  -2.3160  -2.3135  -2.1075  -1.9098  -1.8994  -1.8145  -1.1704
    -1.1619  -0.9141  -0.6698  -0.6667  -0.3322   0.4058   1.1563   1.1587
     1.8177   1.9081   1.9535   1.9536   2.3072   2.4934   2.5031   2.6482
     2.6562   3.7658   4.1012   4.1429   4.2200   4.4044   4.5315   4.5672
     4.8950   7.4910   7.6573   8.1321   8.2082  10.7496  11.0015  11.2093

     occupation numbers 
     1.0000   1.0000   1.0000   1.0000   1.0000   1.0000   1.0000   1.0000
     1.0000   1.0000   1.0000   1.0000   1.0000   1.0000   1.0000   1.0000
     1.0000   1.0000   1.0000   1.0000   1.0000   1.0000   1.0000   1.0000
     1.0000   1.0000   1.0000   1.0000   1.0000   1.0000   1.0000   1.0000
     1.0000   1.0000   1.0000   1.0000   1.0000   1.0000   1.0000   1.0000
     1.0158   1.0381   1.0531   1.0532   0.8148   0.3261   0.3043   0.0825
     0.0756   0.0000   0.0000   0.0000   0.0000   0.0000   0.0000   0.0000
     0.0000   0.0000   0.0000   0.0000   0.0000   0.0000   0.0000   0.0000

          k = 0.0000-0.5774 0.1684 ( 11376 PWs)   bands (ev):

   -92.7032 -92.7032 -92.7013 -56.0433 -56.0193 -56.0190 -55.9998 -55.9975
   -55.9971 -55.8196 -55.8196 -55.8164 -52.2084 -24.1279 -24.1275 -24.0835
   -15.9306 -15.9242 -15.1745 -15.0840 -14.8453 -14.8386  -3.7252  -2.8017
    -2.7927  -2.3160  -2.3135  -2.1074  -1.9095  -1.8992  -1.8144  -1.1693
    -1.1612  -0.9142  -0.6699  -0.6667  -0.3321   0.4062   1.1531   1.1568
     1.8176   1.9082   1.9535   1.9537   2.3071   2.4864   2.4994   2.6543
     2.6593   3.7261   4.0160   4.2282   4.3546   4.4042   4.5005   4.5298
     4.8951   7.4517   7.6502   8.0848   8.2050  10.8888  11.1816  11.2964

     occupation numbers 
     1.0000   1.0000   1.0000   1.0000   1.0000   1.0000   1.0000   1.0000
     1.0000   1.0000   1.0000   1.0000   1.0000   1.0000   1.0000   1.0000
     1.0000   1.0000   1.0000   1.0000   1.0000   1.0000   1.0000   1.0000
     1.0000   1.0000   1.0000   1.0000   1.0000   1.0000   1.0000   1.0000
     1.0000   1.0000   1.0000   1.0000   1.0000   1.0000   1.0000   1.0000
     1.0158   1.0381   1.0531   1.0532   0.8151   0.3422   0.3125   0.0772
     0.0730   0.0000   0.0000   0.0000   0.0000   0.0000   0.0000   0.0000
     0.0000   0.0000   0.0000   0.0000   0.0000   0.0000   0.0000   0.0000

          k = 0.1667 0.2887 0.0000 ( 11373 PWs)   bands (ev):

   -92.7051 -92.7013 -92.7013 -56.0361 -56.0358 -56.0073 -56.0070 -56.0003
   -55.9895 -55.8227 -55.8164 -55.8164 -52.2084 -24.1276 -24.1275 -24.0835
   -16.4246 -15.3096 -15.3044 -14.9552 -14.9485 -14.8045  -3.2393  -3.2321
    -2.7004  -2.5479  -2.5430  -2.3749  -2.2593  -1.6132  -1.6132  -1.0433
    -1.0397  -0.8035  -0.7950  -0.4181   0.2736   0.3575   0.3648   1.0963
     1.8653   2.0053   2.0063   2.0790   2.0803   2.1166   2.5407   2.5435
     2.5805   3.0453   4.3093   4.3174   4.3454   4.5134   4.5200   4.8804
     6.4823   6.6396   6.7673   9.4223   9.9467  10.2335  10.5057  10.7271

     occupation numbers 
     1.0000   1.0000   1.0000   1.0000   1.0000   1.0000   1.0000   1.0000
     1.0000   1.0000   1.0000   1.0000   1.0000   1.0000   1.0000   1.0000
     1.0000   1.0000   1.0000   1.0000   1.0000   1.0000   1.0000   1.0000
     1.0000   1.0000   1.0000   1.0000   1.0000   1.0000   1.0000   1.0000
     1.0000   1.0000   1.0000   1.0000   1.0000   1.0000   1.0000   1.0000
     1.0260   1.0704   1.0707   1.0833   1.0833   1.0777   0.2281   0.2229
     0.1618   0.0001   0.0000   0.0000   0.0000   0.0000   0.0000   0.0000
     0.0000   0.0000   0.0000   0.0000   0.0000   0.0000   0.0000   0.0000

          k = 0.1667 0.2887 0.1684 ( 11359 PWs)   bands (ev):

   -92.7051 -92.7013 -92.7013 -56.0361 -56.0357 -56.0072 -56.0069 -56.0003
   -55.9895 -55.8228 -55.8164 -55.8164 -52.2084 -24.1276 -24.1274 -24.0835
   -16.4246 -15.3096 -15.3044 -14.9552 -14.9484 -14.8045  -3.2393  -3.2321
    -2.7008  -2.5479  -2.5430  -2.3734  -2.2593  -1.6132  -1.6132  -1.0432
    -1.0396  -0.8034  -0.7949  -0.4173   0.2735   0.3577   0.3649   1.0730
     1.8574   2.0053   2.0063   2.0792   2.0804   2.1166   2.5406   2.5433
     2.6884   2.9695   4.3083   4.3162   4.3811   4.5147   4.5211   4.8803
     6.4463   6.5273   6.7668   9.7827  10.0208  10.2275  10.5153  10.7358

     occupation numbers 
     1.0000   1.0000   1.0000   1.0000   1.0000   1.0000   1.0000   1.0000
     1.0000   1.0000   1.0000   1.0000   1.0000   1.0000   1.0000   1.0000
     1.0000   1.0000   1.0000   1.0000   1.0000   1.0000   1.0000   1.0000
     1.0000   1.0000   1.0000   1.0000   1.0000   1.0000   1.0000   1.0000
     1.0000   1.0000   1.0000   1.0000   1.0000   1.0000   1.0000   1.0000
     1.0240   1.0704   1.0707   1.0833   1.0833   1.0777   0.2282   0.2232
     0.0524   0.0007   0.0000   0.0000   0.0000   0.0000   0.0000   0.0000
     0.0000   0.0000   0.0000   0.0000   0.0000   0.0000   0.0000   0.0000

          k = 0.1667 0.4811 0.0000 ( 11356 PWs)   bands (ev):

   -92.7037 -92.7023 -92.7016 -56.0390 -56.0287 -56.0150 -56.0000 -55.9996
   -55.9936 -55.8205 -55.8181 -55.8169 -52.2084 -24.1277 -24.1275 -24.0835
   -16.0787 -15.6689 -15.3800 -14.9624 -14.8786 -14.8297  -3.4994  -2.9969
    -2.8388  -2.4375  -2.2864  -2.1768  -2.0432  -1.8033  -1.7630  -1.1979
    -1.1377  -0.9416  -0.6601  -0.4575  -0.2078   0.4932   0.8531   1.1897
     1.9245   1.9573   1.9796   2.0102   2.3039   2.3128   2.3933   2.5566
     2.7633   3.5274   4.0748   4.1329   4.3041   4.5956   4.7495   4.8150
     4.9596   6.2256   7.3348   8.6411   9.8670  10.0081  10.4503  11.6651

     occupation numbers 
     1.0000   1.0000   1.0000   1.0000   1.0000   1.0000   1.0000   1.0000
     1.0000   1.0000   1.0000   1.0000   1.0000   1.0000   1.0000   1.0000
     1.0000   1.0000   1.0000   1.0000   1.0000   1.0000   1.0000   1.0000
     1.0000   1.0000   1.0000   1.0000   1.0000   1.0000   1.0000   1.0000
     1.0000   1.0000   1.0000   1.0000   1.0000   1.0000   1.0000   1.0000
     1.0433   1.0545   1.0621   1.0719   0.8229   0.8012   0.5856   0.1997
     0.0201   0.0000   0.0000   0.0000   0.0000   0.0000   0.0000   0.0000
     0.0000   0.0000   0.0000   0.0000   0.0000   0.0000   0.0000   0.0000

          k = 0.1667 0.4811 0.1684 ( 11345 PWs)   bands (ev):

   -92.7037 -92.7023 -92.7016 -56.0390 -56.0287 -56.0150 -56.0000 -55.9995
   -55.9935 -55.8205 -55.8181 -55.8169 -52.2084 -24.1278 -24.1275 -24.0835
   -16.0787 -15.6689 -15.3800 -14.9624 -14.8786 -14.8297  -3.4995  -2.9970
    -2.8392  -2.4376  -2.2864  -2.1765  -2.0429  -1.8033  -1.7630  -1.1970
    -1.1371  -0.9415  -0.6601  -0.4575  -0.2078   0.4937   0.8530   1.1852
     1.9244   1.9550   1.9796   2.0102   2.3013   2.3124   2.3934   2.5571
     2.7806   3.4646   4.1034   4.1656   4.3001   4.6126   4.7444   4.8154
     4.9779   6.2343   7.2431   8.5983   9.8478  10.0076  10.7411  11.7957

     occupation numbers 
     1.0000   1.0000   1.0000   1.0000   1.0000   1.0000   1.0000   1.0000
     1.0000   1.0000   1.0000   1.0000   1.0000   1.0000   1.0000   1.0000
     1.0000   1.0000   1.0000   1.0000   1.0000   1.0000   1.0000   1.0000
     1.0000   1.0000   1.0000   1.0000   1.0000   1.0000   1.0000   1.0000
     1.0000   1.0000   1.0000   1.0000   1.0000   1.0000   1.0000   1.0000
     1.0433   1.0536   1.0621   1.0718   0.8291   0.8022   0.5856   0.1990
     0.0158   0.0000   0.0000   0.0000   0.0000   0.0000   0.0000   0.0000
     0.0000   0.0000   0.0000   0.0000   0.0000   0.0000   0.0000   0.0000

          k = 0.3333 0.5774 0.0000 ( 11370 PWs)   bands (ev):

   -92.7025 -92.7025 -92.7025 -56.0293 -56.0288 -56.0288 -55.9965 -55.9965
   -55.9960 -55.8185 -55.8185 -55.8185 -52.2084 -24.1277 -24.1277 -24.0835
   -15.7351 -15.7259 -15.7259 -14.8832 -14.8732 -14.8732  -3.1151  -3.1017
    -3.1017  -2.2798  -2.2798  -2.2786  -1.9186  -1.9186  -1.9145  -1.2157
    -1.1967  -1.1967  -0.3029  -0.3029  -0.2973   0.8656   0.8723   0.8723
     1.9745   1.9796   1.9796   2.1657   2.1657   2.1669   2.5634   2.5710
     2.5710   4.0004   4.0777   4.0777   4.3933   4.8143   4.8143   4.8193
     4.8939   4.8939   7.8301   8.7123   8.7123  11.1740  11.5608  11.5609

     occupation numbers 
     1.0000   1.0000   1.0000   1.0000   1.0000   1.0000   1.0000   1.0000
     1.0000   1.0000   1.0000   1.0000   1.0000   1.0000   1.0000   1.0000
     1.0000   1.0000   1.0000   1.0000   1.0000   1.0000   1.0000   1.0000
     1.0000   1.0000   1.0000   1.0000   1.0000   1.0000   1.0000   1.0000
     1.0000   1.0000   1.0000   1.0000   1.0000   1.0000   1.0000   1.0000
     1.0604   1.0621   1.0621   1.0505   1.0505   1.0495   0.1885   0.1762
     0.1762   0.0000   0.0000   0.0000   0.0000   0.0000   0.0000   0.0000
     0.0000   0.0000   0.0000   0.0000   0.0000   0.0000   0.0000   0.0000

          k = 0.3333 0.5774 0.1684 ( 11352 PWs)   bands (ev):

   -92.7025 -92.7025 -92.7025 -56.0293 -56.0288 -56.0288 -55.9965 -55.9965
   -55.9960 -55.8185 -55.8185 -55.8185 -52.2084 -24.1277 -24.1277 -24.0835
   -15.7351 -15.7259 -15.7259 -14.8832 -14.8732 -14.8732  -3.1153  -3.1018
    -3.1018  -2.2799  -2.2799  -2.2787  -1.9186  -1.9186  -1.9145  -1.2146
    -1.1961  -1.1961  -0.3029  -0.3029  -0.2974   0.8656   0.8723   0.8723
     1.9733   1.9790   1.9790   2.1657   2.1657   2.1669   2.5661   2.5722
     2.5722   3.9209   4.0491   4.0491   4.4927   4.8144   4.8144   4.8194
     4.9373   4.9373   7.7714   8.6469   8.6469  11.3329  11.7744  11.7752

     occupation numbers 
     1.0000   1.0000   1.0000   1.0000   1.0000   1.0000   1.0000   1.0000
     1.0000   1.0000   1.0000   1.0000   1.0000   1.0000   1.0000   1.0000
     1.0000   1.0000   1.0000   1.0000   1.0000   1.0000   1.0000   1.0000
     1.0000   1.0000   1.0000   1.0000   1.0000   1.0000   1.0000   1.0000
     1.0000   1.0000   1.0000   1.0000   1.0000   1.0000   1.0000   1.0000
     1.0600   1.0619   1.0619   1.0505   1.0505   1.0495   0.1841   0.1743
     0.1743   0.0000   0.0000   0.0000   0.0000   0.0000   0.0000   0.0000
     0.0000   0.0000   0.0000   0.0000   0.0000   0.0000   0.0000   0.0000

          k =-0.1667-0.2887 0.1684 ( 11359 PWs)   bands (ev):

   -92.7051 -92.7013 -92.7013 -56.0361 -56.0357 -56.0072 -56.0069 -56.0003
   -55.9895 -55.8228 -55.8164 -55.8164 -52.2084 -24.1276 -24.1274 -24.0835
   -16.4246 -15.3096 -15.3044 -14.9552 -14.9485 -14.8045  -3.2393  -3.2321
    -2.7006  -2.5479  -2.5430  -2.3736  -2.2593  -1.6132  -1.6132  -1.0433
    -1.0397  -0.8032  -0.7948  -0.4177   0.2736   0.3575   0.3648   1.0742
     1.8550   2.0053   2.0063   2.0792   2.0804   2.1165   2.5400   2.5432
     2.6804   2.9932   4.3106   4.3188   4.3501   4.5133   4.5200   4.8803
     6.4584   6.5457   6.7586   9.7474  10.0271  10.2331  10.5721  10.7408

     occupation numbers 
     1.0000   1.0000   1.0000   1.0000   1.0000   1.0000   1.0000   1.0000
     1.0000   1.0000   1.0000   1.0000   1.0000   1.0000   1.0000   1.0000
     1.0000   1.0000   1.0000   1.0000   1.0000   1.0000   1.0000   1.0000
     1.0000   1.0000   1.0000   1.0000   1.0000   1.0000   1.0000   1.0000
     1.0000   1.0000   1.0000   1.0000   1.0000   1.0000   1.0000   1.0000
     1.0235   1.0704   1.0707   1.0833   1.0833   1.0777   0.2294   0.2235
     0.0575   0.0004   0.0000   0.0000   0.0000   0.0000   0.0000   0.0000
     0.0000   0.0000   0.0000   0.0000   0.0000   0.0000   0.0000   0.0000

          k =-0.1667-0.4811 0.1684 ( 11345 PWs)   bands (ev):

   -92.7037 -92.7023 -92.7016 -56.0390 -56.0287 -56.0150 -56.0000 -55.9995
   -55.9935 -55.8205 -55.8181 -55.8169 -52.2084 -24.1278 -24.1275 -24.0835
   -16.0786 -15.6689 -15.3800 -14.9624 -14.8786 -14.8297  -3.4995  -2.9970
    -2.8391  -2.4376  -2.2864  -2.1766  -2.0430  -1.8033  -1.7630  -1.1969
    -1.1369  -0.9413  -0.6601  -0.4575  -0.2078   0.4933   0.8524   1.1841
     1.9245   1.9549   1.9797   2.0102   2.3015   2.3129   2.3930   2.5547
     2.7692   3.5377   4.0788   4.1349   4.3055   4.5974   4.7477   4.8150
     4.9549   6.2152   7.2987   8.6550   9.9364  10.0159  10.6109  11.6414

     occupation numbers 
     1.0000   1.0000   1.0000   1.0000   1.0000   1.0000   1.0000   1.0000
     1.0000   1.0000   1.0000   1.0000   1.0000   1.0000   1.0000   1.0000
     1.0000   1.0000   1.0000   1.0000   1.0000   1.0000   1.0000   1.0000
     1.0000   1.0000   1.0000   1.0000   1.0000   1.0000   1.0000   1.0000
     1.0000   1.0000   1.0000   1.0000   1.0000   1.0000   1.0000   1.0000
     1.0433   1.0536   1.0621   1.0718   0.8285   0.8010   0.5866   0.2030
     0.0185   0.0000   0.0000   0.0000   0.0000   0.0000   0.0000   0.0000
     0.0000   0.0000   0.0000   0.0000   0.0000   0.0000   0.0000   0.0000

          k =-0.3333-0.5774 0.1684 ( 11352 PWs)   bands (ev):

   -92.7025 -92.7025 -92.7025 -56.0293 -56.0288 -56.0288 -55.9965 -55.9965
   -55.9960 -55.8185 -55.8185 -55.8185 -52.2084 -24.1277 -24.1277 -24.0835
   -15.7351 -15.7259 -15.7259 -14.8832 -14.8732 -14.8732  -3.1153  -3.1018
    -3.1018  -2.2799  -2.2799  -2.2788  -1.9186  -1.9186  -1.9145  -1.2144
    -1.1960  -1.1960  -0.3029  -0.3029  -0.2973   0.8642   0.8716   0.8716
     1.9735   1.9791   1.9791   2.1657   2.1657   2.1669   2.5620   2.5703
     2.5703   4.0135   4.0815   4.0815   4.3800   4.8144   4.8144   4.8194
     4.8888   4.8888   7.8490   8.7381   8.7381  11.1398  11.5152  11.5153

     occupation numbers 
     1.0000   1.0000   1.0000   1.0000   1.0000   1.0000   1.0000   1.0000
     1.0000   1.0000   1.0000   1.0000   1.0000   1.0000   1.0000   1.0000
     1.0000   1.0000   1.0000   1.0000   1.0000   1.0000   1.0000   1.0000
     1.0000   1.0000   1.0000   1.0000   1.0000   1.0000   1.0000   1.0000
     1.0000   1.0000   1.0000   1.0000   1.0000   1.0000   1.0000   1.0000
     1.0600   1.0619   1.0619   1.0505   1.0505   1.0495   0.1906   0.1773
     0.1773   0.0000   0.0000   0.0000   0.0000   0.0000   0.0000   0.0000
     0.0000   0.0000   0.0000   0.0000   0.0000   0.0000   0.0000   0.0000

     the Fermi energy is     2.4624 ev

!    total energy              =   -1489.14689058 Ry
     total all-electron energy =     -9588.381698 Ry
     estimated scf accuracy    <          6.8E-09 Ry
     smearing contrib. (-TS)   =       0.00892783 Ry
     internal energy E=F+TS    =   -1489.15581840 Ry

     The total energy is F=E-TS. E is the sum of the following terms:
     one-electron contribution =   -2433.53498805 Ry
     hartree contribution      =    1243.49771989 Ry
     xc contribution           =    -150.35129014 Ry
     ewald contribution        =     186.75725854 Ry
     one-center paw contrib.   =    -335.52451865 Ry
      -> PAW hartree energy AE =     882.88349578 Ry
      -> PAW hartree energy PS =    -880.61090606 Ry
      -> PAW xc energy AE      =    -480.13821172 Ry
      -> PAW xc energy PS      =     142.34110336 Ry
      -> total E_H with PAW    =    1245.77030961 Ry
      -> total E_XC with PAW   =    -488.14839851 Ry

     total magnetization       =     2.48 Bohr mag/cell
     absolute magnetization    =     2.63 Bohr mag/cell

     convergence has been achieved in  26 iterations

     Forces acting on atoms (cartesian axes, Ry/au):

     atom    1 type  1   force =    -0.00031587   -0.00054711    0.00588765
     atom    2 type  1   force =    -0.00031587    0.00054711    0.00588765
     atom    3 type  1   force =     0.00063175    0.00000000    0.00588765
     atom    4 type  2   force =     0.00000000    0.00000000   -0.02679783
     atom    5 type  2   force =     0.00000000    0.00000000   -0.02851675
     atom    6 type  2   force =     0.00000000    0.00000000   -0.02851675
     atom    7 type  2   force =    -0.00089474    0.00154973    0.01733480
     atom    8 type  2   force =    -0.00089474   -0.00154973    0.01733480
     atom    9 type  2   force =     0.00178947   -0.00000000    0.01733480
     atom   10 type  3   force =     0.00000000   -0.00000000    0.01416400
     The non-local contrib.  to forces
     atom    1 type  1   force =     0.00075052    0.00129993   -0.00021557
     atom    2 type  1   force =     0.00075052   -0.00129993   -0.00021557
     atom    3 type  1   force =    -0.00150103   -0.00000000   -0.00021557
     atom    4 type  2   force =     0.00000000    0.00000000   -1.19816109
     atom    5 type  2   force =     0.00000000    0.00000000   -1.21032791
     atom    6 type  2   force =     0.00000000    0.00000000   -1.21032791
     atom    7 type  2   force =    -0.00571826    0.00990431    1.12502857
     atom    8 type  2   force =    -0.00571826   -0.00990431    1.12502857
     atom    9 type  2   force =     0.01143651    0.00000000    1.12502857
     atom   10 type  3   force =     0.00000000    0.00000000   -0.07121039
     The ionic contribution  to forces
     atom    1 type  1   force =    -0.07230382   -0.12523390    2.50874599
     atom    2 type  1   force =    -0.07230381    0.12523389    2.50874599
     atom    3 type  1   force =     0.14460763    0.00000001    2.50874599
     atom    4 type  2   force =     0.00000000    0.00000001   39.24543028
     atom    5 type  2   force =    -0.00000000   -0.00000000   39.33193541
     atom    6 type  2   force =    -0.00000000   -0.00000000   39.33193541
     atom    7 type  2   force =     0.08397752   -0.14545333  -37.53622577
     atom    8 type  2   force =     0.08397752    0.14545332  -37.53622576
     atom    9 type  2   force =    -0.16795504    0.00000000  -37.53622577
     atom   10 type  3   force =     0.00000000    0.00000000  -12.82686177
     The local contribution  to forces
     atom    1 type  1   force =     0.07123810    0.12338793   -2.50265113
     atom    2 type  1   force =     0.07123830   -0.12338793   -2.50265113
     atom    3 type  1   force =    -0.14247617    0.00000018   -2.50265113
     atom    4 type  2   force =     0.00000001    0.00000001  -38.08470362
     atom    5 type  2   force =    -0.00000001    0.00000000  -38.16087659
     atom    6 type  2   force =     0.00000001   -0.00000000  -38.16087659
     atom    7 type  2   force =    -0.07920612    0.13718906   36.43844730
     atom    8 type  2   force =    -0.07920614   -0.13718906   36.43844730
     atom    9 type  2   force =     0.15841227    0.00000001   36.43844730
     atom   10 type  3   force =     0.00000006    0.00000010   12.91219950
     The core correction contribution to forces
     atom    1 type  1   force =     0.00000485    0.00000839    0.00002853
     atom    2 type  1   force =     0.00000485   -0.00000839    0.00002853
     atom    3 type  1   force =    -0.00000969    0.00000000    0.00002853
     atom    4 type  2   force =     0.00000000   -0.00000000    0.01058436
     atom    5 type  2   force =     0.00000000   -0.00000000    0.01069852
     atom    6 type  2   force =     0.00000000    0.00000000    0.01069852
     atom    7 type  2   force =     0.00005190   -0.00008990   -0.00985218
     atom    8 type  2   force =     0.00005190    0.00008990   -0.00985218
     atom    9 type  2   force =    -0.00010380   -0.00000000   -0.00985218
     atom   10 type  3   force =     0.00000000    0.00000000    0.00002404
     The Hubbard contrib.    to forces
     atom    1 type  1   force =     0.00000000    0.00000000    0.00000000
     atom    2 type  1   force =     0.00000000    0.00000000    0.00000000
     atom    3 type  1   force =     0.00000000    0.00000000    0.00000000
     atom    4 type  2   force =     0.00000000    0.00000000    0.00000000
     atom    5 type  2   force =     0.00000000    0.00000000    0.00000000
     atom    6 type  2   force =     0.00000000    0.00000000    0.00000000
     atom    7 type  2   force =     0.00000000    0.00000000    0.00000000
     atom    8 type  2   force =     0.00000000    0.00000000    0.00000000
     atom    9 type  2   force =     0.00000000    0.00000000    0.00000000
     atom   10 type  3   force =     0.00000000    0.00000000    0.00000000
     The SCF correction term to forces
     atom    1 type  1   force =    -0.00000551   -0.00000954   -0.00002615
     atom    2 type  1   force =    -0.00000551    0.00000954   -0.00002615
     atom    3 type  1   force =     0.00001102   -0.00000000   -0.00002615
     atom    4 type  2   force =    -0.00000000   -0.00000000    0.00004628
     atom    5 type  2   force =     0.00000000    0.00000000    0.00004786
     atom    6 type  2   force =     0.00000000    0.00000000    0.00004786
     atom    7 type  2   force =     0.00000024   -0.00000041   -0.00006909
     atom    8 type  2   force =     0.00000024    0.00000041   -0.00006909
     atom    9 type  2   force =    -0.00000048   -0.00000000   -0.00006909
     atom   10 type  3   force =    -0.00000000   -0.00000000    0.00000665

     Total force =     0.059678     Total SCF correction =     0.000153

     Writing all to output data dir ./out/pw.save/ :
     XML data file, charge density, pseudopotentials, collected wavefunctions
 
     init_run     :     22.02s CPU      5.10s WALL (       1 calls)
     electrons    :    345.80s CPU     87.18s WALL (       1 calls)
     forces       :      1.03s CPU      0.96s WALL (       1 calls)

     Called by init_run:
     wfcinit      :      0.57s CPU      0.75s WALL (       1 calls)
     wfcinit:atom :      0.06s CPU      0.06s WALL (      34 calls)
     wfcinit:wfcr :      0.35s CPU      0.39s WALL (      34 calls)
     potinit      :     20.73s CPU      3.55s WALL (       1 calls)
     hinit0       :      0.56s CPU      0.55s WALL (       1 calls)

     Called by electrons:
     c_bands      :     39.83s CPU     39.97s WALL (      26 calls)
     sum_band     :      6.52s CPU      6.52s WALL (      26 calls)
     v_of_rho     :      0.70s CPU      0.47s WALL (      27 calls)
     v_h          :      0.42s CPU      0.12s WALL (      27 calls)
     v_xc         :      0.29s CPU      0.36s WALL (      28 calls)
     newd         :      0.67s CPU      0.61s WALL (      27 calls)
                                        0.61s GPU  (      27 calls)
     PAW_pot      :    306.49s CPU     39.51s WALL (      27 calls)
     mix_rho      :      0.96s CPU      0.98s WALL (      26 calls)

     Called by c_bands:
     init_us_2    :      1.21s CPU      1.19s WALL (    1836 calls)
     cegterg      :     32.57s CPU     32.73s WALL (     884 calls)

     Called by sum_band:
     sum_band:wei :      0.05s CPU      0.05s WALL (      26 calls)
                                        0.05s GPU  (      26 calls)
     sum_band:loo :      4.60s CPU      4.58s WALL (      26 calls)
                                        4.58s GPU  (      26 calls)
     sum_band:buf :      1.56s CPU      1.59s WALL (     884 calls)
                                        1.58s GPU  (     884 calls)
     sum_band:ini :      0.59s CPU      0.59s WALL (     884 calls)
                                        0.58s GPU  (     884 calls)
     sum_band:cal :      0.12s CPU      0.16s WALL (     884 calls)
                                        0.11s GPU  (     884 calls)
     sum_band:bec :      0.45s CPU      0.47s WALL (     884 calls)
                                        0.45s GPU  (     884 calls)
     addusdens    :      1.08s CPU      1.09s WALL (      26 calls)
                                        1.09s GPU  (      26 calls)
     addusd:skk   :      0.01s CPU      0.01s WALL (      78 calls)
                                        0.01s GPU  (      78 calls)

     Called by *egterg:
     cdiaghg      :     12.82s CPU     12.97s WALL (    5376 calls)
                                       12.90s GPU  (    5376 calls)
     cegterg:over :      1.39s CPU      1.41s WALL (    4492 calls)
     cegterg:upda :      1.95s CPU      1.97s WALL (    4492 calls)
     cegterg:last :      0.36s CPU      0.36s WALL (    2091 calls)
     h_psi        :     12.84s CPU     13.01s WALL (    5410 calls)
                                       12.94s GPU  (    5410 calls)
     s_psi        :      1.78s CPU      1.83s WALL (    5410 calls)
     g_psi        :      0.02s CPU      0.22s WALL (    4492 calls)
                                        0.15s GPU  (    4492 calls)

     Called by h_psi:
     h_psi:calbec :      0.23s CPU      0.53s WALL (    5410 calls)
                                        0.46s GPU  (    5410 calls)
     vloc_psi     :     10.01s CPU     10.06s WALL (    5410 calls)
                                        9.99s GPU  (    5410 calls)
     add_vuspsi   :      1.70s CPU      1.99s WALL (    5410 calls)
                                        1.92s GPU  (    5410 calls)

     General routines
     calbec       :      0.28s CPU      0.32s WALL (    6430 calls)
     fft          :      6.87s CPU      1.20s WALL (     688 calls)
                                        0.04s GPU  (     634 calls)
     ffts         :      3.58s CPU      0.89s WALL (     106 calls)
                                        0.00s GPU  (      52 calls)
     fftw         :      0.48s CPU      6.33s WALL (   27958 calls)
                                        6.01s GPU  (   27958 calls)
     interpolate  :     10.85s CPU      2.19s WALL (      54 calls)
 
     Parallel routines

     PAW routines
     PAW_pot      :    306.49s CPU     39.51s WALL (      27 calls)
     PAW_symme    :      0.04s CPU      0.01s WALL (      53 calls)
 
     PWSCF        :   6m 9.74s CPU   1m33.97s WALL

 
   This run was terminated on:   2:25:58  12Jul2026            

=------------------------------------------------------------------------------=
   JOB DONE.
=------------------------------------------------------------------------------=
Warning: ieee_invalid is signaling
Warning: ieee_divide_by_zero is signaling
Warning: ieee_inexact is signaling
FORTRAN STOP
