
     Program PWSCF v.7.3.1 starts on 12Jul2026 at  5:41:13 

     This program is part of the open-source Quantum ESPRESSO suite
     for quantum simulation of materials; please cite
         "P. Giannozzi et al., J. Phys.:Condens. Matter 21 395502 (2009);
         "P. Giannozzi et al., J. Phys.:Condens. Matter 29 465901 (2017);
         "P. Giannozzi et al., J. Chem. Phys. 152 154105 (2020);
          URL http://www.quantum-espresso.org", 
     in publications or presentations arising from this work. More details at
     http://www.quantum-espresso.org/quote

     Parallel version (MPI & OpenMP), running on      14 processor cores
     Number of MPI processes:                 1
     Threads/MPI process:                    14

     MPI processes distributed on     1 nodes
     1358802 MiB available memory on the printing compute node when the environment starts
 
     Reading input from pw.in

     Current dimensions of program PWSCF are:
     Max number of different atomic species (ntypx) = 10
     Max number of k-points (npk) =  40000
     Max angular momentum in pseudopotentials (lmaxx) =  4
     file Co.pbe-spn-kjpaw_psl.0.3.1.UPF: wavefunction(s)  3P 3D renormalized
     file O.pbe-n-kjpaw_psl.1.0.0.UPF: wavefunction(s)  2S 2P renormalized
 
     Subspace diagonalization in iterative solution of the eigenvalue problem:
     a serial algorithm will be used

 
     G-vector sticks info
     --------------------
     sticks:   dense  smooth     PW     G-vecs:    dense   smooth      PW
     Sum         931     475    151                45403    15993    2651
 
     Using Slab Decomposition
 


     bravais-lattice index     =            4
     lattice parameter (alat)  =       5.3290  a.u.
     unit-cell volume          =     255.6161 (a.u.)^3
     number of atoms/cell      =            4
     number of atomic types    =            3
     number of electrons       =        32.30
     number of Kohn-Sham states=           24
     kinetic-energy cutoff     =      60.0000  Ry
     charge density cutoff     =     480.0000  Ry
     scf convergence threshold =      1.0E-07
     mixing beta               =       0.3000
     number of iterations used =            8  local-TF  mixing
     Exchange-correlation= SLA  PW   PBX  PBC
                           (   1   4   3   4   0   0   0)

     GPU acceleration is ACTIVE.  1 visible GPUs per MPI rank
     GPU-aware MPI enabled


     GPU used by master process:

        Device Number: 0
        Device name: NVIDIA A100-SXM4-80GB
        Compute capability : 80
        Ratio of single to double precision performance  : 2
        Memory Clock Rate (KHz): 1593000
        Memory Bus Width (bits): 5120
        Peak Memory Bandwidth (GB/s): ******

     celldm(1)=   5.329028  celldm(2)=   0.000000  celldm(3)=   1.950355
     celldm(4)=   0.000000  celldm(5)=   0.000000  celldm(6)=   0.000000

     crystal axes: (cart. coord. in units of alat)
               a(1) = (   1.000000   0.000000   0.000000 )  
               a(2) = (  -0.500000   0.866025   0.000000 )  
               a(3) = (   0.000000   0.000000   1.950355 )  

     reciprocal axes: (cart. coord. in units 2 pi/alat)
               b(1) = (  1.000000  0.577350 -0.000000 )  
               b(2) = (  0.000000  1.154701  0.000000 )  
               b(3) = (  0.000000 -0.000000  0.512727 )  


     PseudoPot. # 1 for Co read from file:
     ../../pseudo/Co.pbe-spn-kjpaw_psl.0.3.1.UPF
     MD5 check sum: 3c0a43779828c046024e4f3be63f8e67
     Pseudo is Projector augmented-wave + core cor, Zval = 17.0
     Generated using &quot;atomic&quot; code by A. Dal Corso  v.6.2.2
     Shape of augmentation charge: PSQ
     Using radial grid of 1193 points,  6 beta functions with: 
                l(1) =   0
                l(2) =   0
                l(3) =   1
                l(4) =   1
                l(5) =   2
                l(6) =   2
     Q(r) pseudized with 0 coefficients 


     PseudoPot. # 2 for O  read from file:
     ../../pseudo/O.pbe-n-kjpaw_psl.1.0.0.UPF
     MD5 check sum: e99d9cef9b487d1ca56f5b95ecd0fd7a
     Pseudo is Projector augmented-wave + core cor, Zval =  6.0
     Generated using &quot;atomic&quot; code by A. Dal Corso  v.6.3
     Shape of augmentation charge: PSQ
     Using radial grid of 1095 points,  4 beta functions with: 
                l(1) =   0
                l(2) =   0
                l(3) =   1
                l(4) =   1
     Q(r) pseudized with 0 coefficients 


     PseudoPot. # 3 for Li read from file:
     ../../pseudo/Li.pbe-s-kjpaw_psl.1.0.0.UPF
     MD5 check sum: 3974953fb0fea6c4f83fb01d64ffc134
     Pseudo is Projector augmented-wave, Zval =  3.0
     Generated using &quot;atomic&quot; code by A. Dal Corso  v.6.3
     Shape of augmentation charge: PSQ
     Using radial grid of 1017 points,  4 beta functions with: 
                l(1) =   0
                l(2) =   0
                l(3) =   1
                l(4) =   1
     Q(r) pseudized with 0 coefficients 


     atomic species   valence    mass     pseudopotential
     Co               17.00    58.93300     Co( 1.00)
     O                 6.00    15.99900     O ( 1.00)
     Li                3.00     6.94100     Li( 1.00)

     Starting magnetic structure 
     atomic species   magnetization
     Co              0.300
     O               0.000
     Li              0.000

      6 Sym. Ops. (no inversion) found


                                    s                        frac. trans.

      isym =  1     identity                                     

 cryst.   s( 1) = (     1          0          0      )
                  (     0          1          0      )
                  (     0          0          1      )

 cart.    s( 1) = (  1.0000000  0.0000000  0.0000000 )
                  (  0.0000000  1.0000000  0.0000000 )
                  (  0.0000000  0.0000000  1.0000000 )


      isym =  2     120 deg rotation - cryst. axis [0,0,1]       

 cryst.   s( 2) = (     0          1          0      )
                  (    -1         -1          0      )
                  (     0          0          1      )

 cart.    s( 2) = ( -0.5000000 -0.8660254  0.0000000 )
                  (  0.8660254 -0.5000000  0.0000000 )
                  (  0.0000000  0.0000000  1.0000000 )


      isym =  3     120 deg rotation - cryst. axis [0,0,-1]      

 cryst.   s( 3) = (    -1         -1          0      )
                  (     1          0          0      )
                  (     0          0          1      )

 cart.    s( 3) = ( -0.5000000  0.8660254  0.0000000 )
                  ( -0.8660254 -0.5000000  0.0000000 )
                  (  0.0000000  0.0000000  1.0000000 )


      isym =  4     inv. 180 deg rotation - cart. axis [1,0,0]   

 cryst.   s( 4) = (    -1          0          0      )
                  (     1          1          0      )
                  (     0          0          1      )

 cart.    s( 4) = ( -1.0000000  0.0000000  0.0000000 )
                  (  0.0000000  1.0000000  0.0000000 )
                  (  0.0000000  0.0000000  1.0000000 )


      isym =  5     inv. 180 deg rotation - cryst. axis [0,1,0]  

 cryst.   s( 5) = (     1          1          0      )
                  (     0         -1          0      )
                  (     0          0          1      )

 cart.    s( 5) = (  0.5000000  0.8660254  0.0000000 )
                  (  0.8660254 -0.5000000  0.0000000 )
                  (  0.0000000  0.0000000  1.0000000 )


      isym =  6     inv. 180 deg rotation - cryst. axis [1,1,0]  

 cryst.   s( 6) = (     0         -1          0      )
                  (    -1          0          0      )
                  (     0          0          1      )

 cart.    s( 6) = (  0.5000000 -0.8660254  0.0000000 )
                  ( -0.8660254 -0.5000000  0.0000000 )
                  (  0.0000000  0.0000000  1.0000000 )


     point group C_3v (3m)  
     there are  3 classes
     the character table:

       E     2C3   3s_v 
A_1    1.00  1.00  1.00
A_2    1.00  1.00 -1.00
E      2.00 -1.00  0.00

     the symmetry operations in each class and the name of the first element:

     E        1
          identity                                               
     2C3      2    3
          120 deg rotation - cryst. axis [0,0,1]                 
     3s_v     4    5    6
          inv. 180 deg rotation - cart. axis [1,0,0]             

   Cartesian axes

     site n.     atom                  positions (alat units)
         1        Co     tau(   1) = (   0.0000000   0.0000000   0.0000000  )
         2        O      tau(   2) = (  -0.0000000   0.5773503   0.3404255  )
         3        O      tau(   3) = (   0.5000000   0.2886751   1.6099291  )
         4        Li     tau(   4) = (   0.0000000   0.0000000   1.0283688  )

   Crystallographic axes

     site n.     atom                  positions (cryst. coord.)
         1        Co     tau(   1) = (  0.0000000  0.0000000  0.0000000  )
         2        O      tau(   2) = (  0.3333333  0.6666667  0.1745455  )
         3        O      tau(   3) = (  0.6666667  0.3333333  0.8254545  )
         4        Li     tau(   4) = (  0.0000000  0.0000000  0.5272727  )

     number of k points=    25  Marzari-Vanderbilt smearing, width (Ry)=  0.0200
                       cart. coord. in units 2pi/alat
        k(    1) = (   0.0000000   0.0000000   0.0000000), wk =   0.0052083
        k(    2) = (   0.0000000   0.0000000   0.1709091), wk =   0.0104167
        k(    3) = (   0.0000000   0.1443376   0.0000000), wk =   0.0312500
        k(    4) = (   0.0000000   0.1443376   0.1709091), wk =   0.0312500
        k(    5) = (   0.0000000   0.2886751   0.0000000), wk =   0.0312500
        k(    6) = (   0.0000000   0.2886751   0.1709091), wk =   0.0312500
        k(    7) = (   0.0000000   0.4330127   0.0000000), wk =   0.0312500
        k(    8) = (   0.0000000   0.4330127   0.1709091), wk =   0.0312500
        k(    9) = (   0.0000000  -0.5773503   0.0000000), wk =   0.0156250
        k(   10) = (   0.0000000  -0.5773503   0.1709091), wk =   0.0312500
        k(   11) = (   0.1250000   0.2165064   0.0000000), wk =   0.0312500
        k(   12) = (   0.1250000   0.2165064   0.1709091), wk =   0.0625000
        k(   13) = (   0.1250000   0.3608439   0.0000000), wk =   0.0625000
        k(   14) = (   0.1250000   0.3608439   0.1709091), wk =   0.0625000
        k(   15) = (   0.1250000   0.5051815   0.0000000), wk =   0.0625000
        k(   16) = (   0.1250000   0.5051815   0.1709091), wk =   0.0625000
        k(   17) = (   0.2500000   0.4330127   0.0000000), wk =   0.0312500
        k(   18) = (   0.2500000   0.4330127   0.1709091), wk =   0.0625000
        k(   19) = (   0.2500000   0.5773503   0.0000000), wk =   0.0312500
        k(   20) = (   0.2500000   0.5773503   0.1709091), wk =   0.0625000
        k(   21) = (   0.0000000  -0.1443376   0.1709091), wk =   0.0312500
        k(   22) = (   0.0000000  -0.2886751   0.1709091), wk =   0.0312500
        k(   23) = (   0.0000000  -0.4330127   0.1709091), wk =   0.0312500
        k(   24) = (  -0.1250000  -0.3608439   0.1709091), wk =   0.0625000
        k(   25) = (  -0.1250000  -0.5051815   0.1709091), wk =   0.0625000

                       cryst. coord.
        k(    1) = (   0.0000000   0.0000000   0.0000000), wk =   0.0052083
        k(    2) = (   0.0000000   0.0000000   0.3333333), wk =   0.0104167
        k(    3) = (   0.0000000   0.1250000   0.0000000), wk =   0.0312500
        k(    4) = (   0.0000000   0.1250000   0.3333333), wk =   0.0312500
        k(    5) = (   0.0000000   0.2500000   0.0000000), wk =   0.0312500
        k(    6) = (   0.0000000   0.2500000   0.3333333), wk =   0.0312500
        k(    7) = (   0.0000000   0.3750000   0.0000000), wk =   0.0312500
        k(    8) = (   0.0000000   0.3750000   0.3333333), wk =   0.0312500
        k(    9) = (   0.0000000  -0.5000000   0.0000000), wk =   0.0156250
        k(   10) = (   0.0000000  -0.5000000   0.3333333), wk =   0.0312500
        k(   11) = (   0.1250000   0.1250000   0.0000000), wk =   0.0312500
        k(   12) = (   0.1250000   0.1250000   0.3333333), wk =   0.0625000
        k(   13) = (   0.1250000   0.2500000   0.0000000), wk =   0.0625000
        k(   14) = (   0.1250000   0.2500000   0.3333333), wk =   0.0625000
        k(   15) = (   0.1250000   0.3750000   0.0000000), wk =   0.0625000
        k(   16) = (   0.1250000   0.3750000   0.3333333), wk =   0.0625000
        k(   17) = (   0.2500000   0.2500000   0.0000000), wk =   0.0312500
        k(   18) = (   0.2500000   0.2500000   0.3333333), wk =   0.0625000
        k(   19) = (   0.2500000   0.3750000   0.0000000), wk =   0.0312500
        k(   20) = (   0.2500000   0.3750000   0.3333333), wk =   0.0625000
        k(   21) = (   0.0000000  -0.1250000   0.3333333), wk =   0.0312500
        k(   22) = (   0.0000000  -0.2500000   0.3333333), wk =   0.0312500
        k(   23) = (   0.0000000  -0.3750000   0.3333333), wk =   0.0312500
        k(   24) = (  -0.1250000  -0.2500000   0.3333333), wk =   0.0625000
        k(   25) = (  -0.1250000  -0.3750000   0.3333333), wk =   0.0625000

     Dense  grid:    45403 G-vectors     FFT dimensions: (  40,  40,  75)

     Smooth grid:    15993 G-vectors     FFT dimensions: (  27,  27,  54)

     Dynamical RAM for                 wfc:       0.73 MB

     Dynamical RAM for     wfc (w. buffer):      37.47 MB

     Dynamical RAM for           str. fact:       2.08 MB

     Dynamical RAM for           local pot:       0.00 MB

     Dynamical RAM for          nlocal pot:       1.29 MB

     Dynamical RAM for                qrad:       5.27 MB

     Dynamical RAM for          rho,v,vnew:       9.65 MB

     Dynamical RAM for               rhoin:       3.22 MB

     Dynamical RAM for            rho*nmix:      22.17 MB

     Dynamical RAM for           G-vectors:       2.72 MB

     Dynamical RAM for          h,s,v(r/c):       0.11 MB

     Dynamical RAM for          <psi|beta>:       0.02 MB

     Dynamical RAM for                 psi:       1.47 MB

     Dynamical RAM for                hpsi:       1.47 MB

     Dynamical RAM for                spsi:       1.47 MB

     Dynamical RAM for      wfcinit/wfcrot:       1.48 MB

     Dynamical RAM for           addusdens:     130.94 MB

     Dynamical RAM for          addusforce:     132.34 MB

     Estimated static dynamical RAM per process >      69.95 MB

     Estimated max dynamical RAM per process >     224.46 MB

     Check: negative core charge=   -0.000009
     Generating pointlists ...
     new r_m :   0.2765 (alat units)  1.4733 (a.u.) for type    1
     new r_m :   0.2765 (alat units)  1.4733 (a.u.) for type    2
     new r_m :   0.3380 (alat units)  1.8014 (a.u.) for type    3

     Initial potential from superposition of free atoms

     starting charge      31.9951, renormalised to      32.3000
     Starting wfcs are   23 randomized atomic wfcs +    1 random wfcs
     Checking if some PAW data can be deallocated... 

     total cpu time spent up to now is        3.0 secs

     Self-consistent Calculation
[tb_dev] Currently allocated     6.36E-01 Mbytes, locked:    0 /   6
[tb_pin] Currently allocated     0.00E+00 Mbytes, locked:    0 /   0

     iteration #  1     ecut=    60.00 Ry     beta= 0.30
     Davidson diagonalization with overlap

---- Real-time Memory Report at c_bands before calling an iterative solver
           642 MiB given to the printing process from OS
             0 MiB allocation reported by mallinfo(arena+hblkhd)
       1355909 MiB available memory on the node where the printing process lives
     GPU memory used/free/total (MiB): 916 / 80234 / 81151
------------------
     ethr =  1.00E-02,  avg # of iterations =  7.6

     total cpu time spent up to now is        4.8 secs

     total energy              =    -474.68910150 Ry
     estimated scf accuracy    <       1.87118208 Ry

     total magnetization       =     3.90 Bohr mag/cell
     absolute magnetization    =     4.03 Bohr mag/cell
[tb_dev] Currently allocated     3.05E-05 Mbytes, locked:    0 /   2
[tb_pin] Currently allocated     0.00E+00 Mbytes, locked:    0 /   0

     iteration #  2     ecut=    60.00 Ry     beta= 0.30
     Davidson diagonalization with overlap

---- Real-time Memory Report at c_bands before calling an iterative solver
           685 MiB given to the printing process from OS
             0 MiB allocation reported by mallinfo(arena+hblkhd)
       1354283 MiB available memory on the node where the printing process lives
     GPU memory used/free/total (MiB): 928 / 80222 / 81151
------------------
     ethr =  5.79E-03,  avg # of iterations =  1.4

     total cpu time spent up to now is        5.9 secs

     total energy              =    -474.72421989 Ry
     estimated scf accuracy    <       0.44544365 Ry

     total magnetization       =     3.71 Bohr mag/cell
     absolute magnetization    =     3.71 Bohr mag/cell
[tb_dev] Currently allocated     3.05E-05 Mbytes, locked:    0 /   2
[tb_pin] Currently allocated     0.00E+00 Mbytes, locked:    0 /   0

     iteration #  3     ecut=    60.00 Ry     beta= 0.30
     Davidson diagonalization with overlap

---- Real-time Memory Report at c_bands before calling an iterative solver
           686 MiB given to the printing process from OS
             0 MiB allocation reported by mallinfo(arena+hblkhd)
       1353354 MiB available memory on the node where the printing process lives
     GPU memory used/free/total (MiB): 928 / 80222 / 81151
------------------
     ethr =  1.38E-03,  avg # of iterations =  2.2

     total cpu time spent up to now is        7.0 secs

     total energy              =    -474.82799092 Ry
     estimated scf accuracy    <       0.13845989 Ry

     total magnetization       =     2.67 Bohr mag/cell
     absolute magnetization    =     2.69 Bohr mag/cell
[tb_dev] Currently allocated     3.05E-05 Mbytes, locked:    0 /   2
[tb_pin] Currently allocated     0.00E+00 Mbytes, locked:    0 /   0

     iteration #  4     ecut=    60.00 Ry     beta= 0.30
     Davidson diagonalization with overlap

---- Real-time Memory Report at c_bands before calling an iterative solver
           687 MiB given to the printing process from OS
             0 MiB allocation reported by mallinfo(arena+hblkhd)
       1352485 MiB available memory on the node where the printing process lives
     GPU memory used/free/total (MiB): 928 / 80222 / 81151
------------------
     ethr =  4.29E-04,  avg # of iterations =  2.1

     total cpu time spent up to now is        8.1 secs

     total energy              =    -474.85865662 Ry
     estimated scf accuracy    <       0.06528654 Ry

     total magnetization       =     2.77 Bohr mag/cell
     absolute magnetization    =     2.78 Bohr mag/cell
[tb_dev] Currently allocated     3.05E-05 Mbytes, locked:    0 /   2
[tb_pin] Currently allocated     0.00E+00 Mbytes, locked:    0 /   0

     iteration #  5     ecut=    60.00 Ry     beta= 0.30
     Davidson diagonalization with overlap

---- Real-time Memory Report at c_bands before calling an iterative solver
           688 MiB given to the printing process from OS
             0 MiB allocation reported by mallinfo(arena+hblkhd)
       1351581 MiB available memory on the node where the printing process lives
     GPU memory used/free/total (MiB): 928 / 80222 / 81151
------------------
     ethr =  2.02E-04,  avg # of iterations =  2.8

     total cpu time spent up to now is        9.3 secs

     total energy              =    -474.87447759 Ry
     estimated scf accuracy    <       0.06546350 Ry

     total magnetization       =     1.32 Bohr mag/cell
     absolute magnetization    =     1.43 Bohr mag/cell
[tb_dev] Currently allocated     3.05E-05 Mbytes, locked:    0 /   2
[tb_pin] Currently allocated     0.00E+00 Mbytes, locked:    0 /   0

     iteration #  6     ecut=    60.00 Ry     beta= 0.30
     Davidson diagonalization with overlap

---- Real-time Memory Report at c_bands before calling an iterative solver
           689 MiB given to the printing process from OS
             0 MiB allocation reported by mallinfo(arena+hblkhd)
       1350659 MiB available memory on the node where the printing process lives
     GPU memory used/free/total (MiB): 928 / 80222 / 81151
------------------
     ethr =  2.02E-04,  avg # of iterations =  1.1

     total cpu time spent up to now is       10.3 secs

     total energy              =    -474.88037654 Ry
     estimated scf accuracy    <       0.05789335 Ry

     total magnetization       =     1.68 Bohr mag/cell
     absolute magnetization    =     1.74 Bohr mag/cell
[tb_dev] Currently allocated     3.05E-05 Mbytes, locked:    0 /   2
[tb_pin] Currently allocated     0.00E+00 Mbytes, locked:    0 /   0

     iteration #  7     ecut=    60.00 Ry     beta= 0.30
     Davidson diagonalization with overlap

---- Real-time Memory Report at c_bands before calling an iterative solver
           690 MiB given to the printing process from OS
             0 MiB allocation reported by mallinfo(arena+hblkhd)
       1349971 MiB available memory on the node where the printing process lives
     GPU memory used/free/total (MiB): 928 / 80222 / 81151
------------------
     ethr =  1.79E-04,  avg # of iterations =  1.2

     total cpu time spent up to now is       11.4 secs

     total energy              =    -474.85145926 Ry
     estimated scf accuracy    <       0.06172612 Ry

     total magnetization       =     1.51 Bohr mag/cell
     absolute magnetization    =     1.58 Bohr mag/cell
[tb_dev] Currently allocated     3.05E-05 Mbytes, locked:    0 /   2
[tb_pin] Currently allocated     0.00E+00 Mbytes, locked:    0 /   0

     iteration #  8     ecut=    60.00 Ry     beta= 0.30
     Davidson diagonalization with overlap

---- Real-time Memory Report at c_bands before calling an iterative solver
           691 MiB given to the printing process from OS
             0 MiB allocation reported by mallinfo(arena+hblkhd)
       1348904 MiB available memory on the node where the printing process lives
     GPU memory used/free/total (MiB): 928 / 80222 / 81151
------------------
     ethr =  1.79E-04,  avg # of iterations =  1.1

     total cpu time spent up to now is       12.4 secs

     total energy              =    -474.81702344 Ry
     estimated scf accuracy    <       0.04521694 Ry

     total magnetization       =     2.53 Bohr mag/cell
     absolute magnetization    =     2.55 Bohr mag/cell
[tb_dev] Currently allocated     3.05E-05 Mbytes, locked:    0 /   2
[tb_pin] Currently allocated     0.00E+00 Mbytes, locked:    0 /   0

     iteration #  9     ecut=    60.00 Ry     beta= 0.30
     Davidson diagonalization with overlap

---- Real-time Memory Report at c_bands before calling an iterative solver
           692 MiB given to the printing process from OS
             0 MiB allocation reported by mallinfo(arena+hblkhd)
       1347961 MiB available memory on the node where the printing process lives
     GPU memory used/free/total (MiB): 928 / 80222 / 81151
------------------
     c_bands:  1 eigenvalues not converged
     ethr =  1.40E-04,  avg # of iterations =  2.5

     total cpu time spent up to now is       13.5 secs

     total energy              =    -474.85203506 Ry
     estimated scf accuracy    <       0.07558419 Ry

     total magnetization       =     3.25 Bohr mag/cell
     absolute magnetization    =     3.27 Bohr mag/cell
[tb_dev] Currently allocated     3.05E-05 Mbytes, locked:    0 /   2
[tb_pin] Currently allocated     0.00E+00 Mbytes, locked:    0 /   0

     iteration # 10     ecut=    60.00 Ry     beta= 0.30
     Davidson diagonalization with overlap

---- Real-time Memory Report at c_bands before calling an iterative solver
           693 MiB given to the printing process from OS
             0 MiB allocation reported by mallinfo(arena+hblkhd)
       1347101 MiB available memory on the node where the printing process lives
     GPU memory used/free/total (MiB): 928 / 80222 / 81151
------------------
     ethr =  1.40E-04,  avg # of iterations =  1.5

     total cpu time spent up to now is       14.6 secs

     total energy              =    -474.87890685 Ry
     estimated scf accuracy    <       0.07017209 Ry

     total magnetization       =     1.42 Bohr mag/cell
     absolute magnetization    =     1.54 Bohr mag/cell
[tb_dev] Currently allocated     3.05E-05 Mbytes, locked:    0 /   2
[tb_pin] Currently allocated     0.00E+00 Mbytes, locked:    0 /   0

     iteration # 11     ecut=    60.00 Ry     beta= 0.30
     Davidson diagonalization with overlap

---- Real-time Memory Report at c_bands before calling an iterative solver
           693 MiB given to the printing process from OS
             0 MiB allocation reported by mallinfo(arena+hblkhd)
       1346005 MiB available memory on the node where the printing process lives
     GPU memory used/free/total (MiB): 928 / 80222 / 81151
------------------
     ethr =  1.40E-04,  avg # of iterations =  1.6

     total cpu time spent up to now is       15.8 secs

     total energy              =    -474.90015165 Ry
     estimated scf accuracy    <       0.05000544 Ry

     total magnetization       =     1.64 Bohr mag/cell
     absolute magnetization    =     1.75 Bohr mag/cell
[tb_dev] Currently allocated     3.05E-05 Mbytes, locked:    0 /   2
[tb_pin] Currently allocated     0.00E+00 Mbytes, locked:    0 /   0

     iteration # 12     ecut=    60.00 Ry     beta= 0.30
     Davidson diagonalization with overlap

---- Real-time Memory Report at c_bands before calling an iterative solver
           693 MiB given to the printing process from OS
             0 MiB allocation reported by mallinfo(arena+hblkhd)
       1345096 MiB available memory on the node where the printing process lives
     GPU memory used/free/total (MiB): 928 / 80222 / 81151
------------------
     ethr =  1.40E-04,  avg # of iterations =  1.8

     total cpu time spent up to now is       16.8 secs

     total energy              =    -474.92998534 Ry
     estimated scf accuracy    <       0.07981279 Ry

     total magnetization       =     0.46 Bohr mag/cell
     absolute magnetization    =     0.81 Bohr mag/cell
[tb_dev] Currently allocated     3.05E-05 Mbytes, locked:    0 /   2
[tb_pin] Currently allocated     0.00E+00 Mbytes, locked:    0 /   0

     iteration # 13     ecut=    60.00 Ry     beta= 0.30
     Davidson diagonalization with overlap

---- Real-time Memory Report at c_bands before calling an iterative solver
           693 MiB given to the printing process from OS
             0 MiB allocation reported by mallinfo(arena+hblkhd)
       1363430 MiB available memory on the node where the printing process lives
     GPU memory used/free/total (MiB): 928 / 80222 / 81151
------------------
     ethr =  1.40E-04,  avg # of iterations =  1.2

     total cpu time spent up to now is       17.9 secs

     total energy              =    -474.93786250 Ry
     estimated scf accuracy    <       0.09227999 Ry

     total magnetization       =     0.18 Bohr mag/cell
     absolute magnetization    =     0.60 Bohr mag/cell
[tb_dev] Currently allocated     3.05E-05 Mbytes, locked:    0 /   2
[tb_pin] Currently allocated     0.00E+00 Mbytes, locked:    0 /   0

     iteration # 14     ecut=    60.00 Ry     beta= 0.30
     Davidson diagonalization with overlap

---- Real-time Memory Report at c_bands before calling an iterative solver
           693 MiB given to the printing process from OS
             0 MiB allocation reported by mallinfo(arena+hblkhd)
       1364054 MiB available memory on the node where the printing process lives
     GPU memory used/free/total (MiB): 928 / 80222 / 81151
------------------
     ethr =  1.40E-04,  avg # of iterations =  1.2

     total cpu time spent up to now is       18.8 secs

     total energy              =    -474.90181509 Ry
     estimated scf accuracy    <       0.07811781 Ry

     total magnetization       =     0.13 Bohr mag/cell
     absolute magnetization    =     0.54 Bohr mag/cell
[tb_dev] Currently allocated     3.05E-05 Mbytes, locked:    0 /   2
[tb_pin] Currently allocated     0.00E+00 Mbytes, locked:    0 /   0

     iteration # 15     ecut=    60.00 Ry     beta= 0.30
     Davidson diagonalization with overlap

---- Real-time Memory Report at c_bands before calling an iterative solver
           693 MiB given to the printing process from OS
             0 MiB allocation reported by mallinfo(arena+hblkhd)
       1364683 MiB available memory on the node where the printing process lives
     GPU memory used/free/total (MiB): 928 / 80222 / 81151
------------------
     ethr =  1.40E-04,  avg # of iterations =  1.1

     total cpu time spent up to now is       19.8 secs

     total energy              =    -474.92950355 Ry
     estimated scf accuracy    <       0.07075170 Ry

     total magnetization       =     0.52 Bohr mag/cell
     absolute magnetization    =     0.82 Bohr mag/cell
[tb_dev] Currently allocated     3.05E-05 Mbytes, locked:    0 /   2
[tb_pin] Currently allocated     0.00E+00 Mbytes, locked:    0 /   0

     iteration # 16     ecut=    60.00 Ry     beta= 0.30
     Davidson diagonalization with overlap

---- Real-time Memory Report at c_bands before calling an iterative solver
           693 MiB given to the printing process from OS
             0 MiB allocation reported by mallinfo(arena+hblkhd)
       1364540 MiB available memory on the node where the printing process lives
     GPU memory used/free/total (MiB): 928 / 80222 / 81151
------------------
     ethr =  1.40E-04,  avg # of iterations =  1.6

     total cpu time spent up to now is       20.9 secs

     total energy              =    -474.90446062 Ry
     estimated scf accuracy    <       0.04698612 Ry

     total magnetization       =     0.28 Bohr mag/cell
     absolute magnetization    =     0.51 Bohr mag/cell
[tb_dev] Currently allocated     3.05E-05 Mbytes, locked:    0 /   2
[tb_pin] Currently allocated     0.00E+00 Mbytes, locked:    0 /   0

     iteration # 17     ecut=    60.00 Ry     beta= 0.30
     Davidson diagonalization with overlap

---- Real-time Memory Report at c_bands before calling an iterative solver
           693 MiB given to the printing process from OS
             0 MiB allocation reported by mallinfo(arena+hblkhd)
       1364461 MiB available memory on the node where the printing process lives
     GPU memory used/free/total (MiB): 928 / 80222 / 81151
------------------
     ethr =  1.40E-04,  avg # of iterations =  2.5

     total cpu time spent up to now is       22.0 secs

     total energy              =    -474.93075611 Ry
     estimated scf accuracy    <       0.06655817 Ry

     total magnetization       =    -0.21 Bohr mag/cell
     absolute magnetization    =     0.23 Bohr mag/cell
[tb_dev] Currently allocated     3.05E-05 Mbytes, locked:    0 /   2
[tb_pin] Currently allocated     0.00E+00 Mbytes, locked:    0 /   0

     iteration # 18     ecut=    60.00 Ry     beta= 0.30
     Davidson diagonalization with overlap

---- Real-time Memory Report at c_bands before calling an iterative solver
           693 MiB given to the printing process from OS
             0 MiB allocation reported by mallinfo(arena+hblkhd)
       1364473 MiB available memory on the node where the printing process lives
     GPU memory used/free/total (MiB): 928 / 80222 / 81151
------------------
     ethr =  1.40E-04,  avg # of iterations =  2.0

     total cpu time spent up to now is       23.0 secs

     total energy              =    -474.89826788 Ry
     estimated scf accuracy    <       0.14990215 Ry

     total magnetization       =    -0.49 Bohr mag/cell
     absolute magnetization    =     0.54 Bohr mag/cell
[tb_dev] Currently allocated     3.05E-05 Mbytes, locked:    0 /   2
[tb_pin] Currently allocated     0.00E+00 Mbytes, locked:    0 /   0

     iteration # 19     ecut=    60.00 Ry     beta= 0.30
     Davidson diagonalization with overlap

---- Real-time Memory Report at c_bands before calling an iterative solver
           693 MiB given to the printing process from OS
             0 MiB allocation reported by mallinfo(arena+hblkhd)
       1364421 MiB available memory on the node where the printing process lives
     GPU memory used/free/total (MiB): 928 / 80222 / 81151
------------------
     ethr =  1.40E-04,  avg # of iterations =  1.9

     total cpu time spent up to now is       24.1 secs

     total energy              =    -474.94885868 Ry
     estimated scf accuracy    <       0.01831832 Ry

     total magnetization       =     0.29 Bohr mag/cell
     absolute magnetization    =     0.35 Bohr mag/cell
[tb_dev] Currently allocated     3.05E-05 Mbytes, locked:    0 /   2
[tb_pin] Currently allocated     0.00E+00 Mbytes, locked:    0 /   0

     iteration # 20     ecut=    60.00 Ry     beta= 0.30
     Davidson diagonalization with overlap

---- Real-time Memory Report at c_bands before calling an iterative solver
           693 MiB given to the printing process from OS
             0 MiB allocation reported by mallinfo(arena+hblkhd)
       1364473 MiB available memory on the node where the printing process lives
     GPU memory used/free/total (MiB): 928 / 80222 / 81151
------------------
     ethr =  5.67E-05,  avg # of iterations =  1.0

     total cpu time spent up to now is       25.1 secs

     total energy              =    -474.92623527 Ry
     estimated scf accuracy    <       0.01647013 Ry

     total magnetization       =     0.14 Bohr mag/cell
     absolute magnetization    =     0.18 Bohr mag/cell
[tb_dev] Currently allocated     3.05E-05 Mbytes, locked:    0 /   2
[tb_pin] Currently allocated     0.00E+00 Mbytes, locked:    0 /   0

     iteration # 21     ecut=    60.00 Ry     beta= 0.30
     Davidson diagonalization with overlap

---- Real-time Memory Report at c_bands before calling an iterative solver
           693 MiB given to the printing process from OS
             0 MiB allocation reported by mallinfo(arena+hblkhd)
       1364525 MiB available memory on the node where the printing process lives
     GPU memory used/free/total (MiB): 928 / 80222 / 81151
------------------
     ethr =  5.10E-05,  avg # of iterations =  1.8

     total cpu time spent up to now is       26.1 secs

     total energy              =    -474.94751685 Ry
     estimated scf accuracy    <       0.06441888 Ry

     total magnetization       =    -0.32 Bohr mag/cell
     absolute magnetization    =     0.37 Bohr mag/cell
[tb_dev] Currently allocated     3.05E-05 Mbytes, locked:    0 /   2
[tb_pin] Currently allocated     0.00E+00 Mbytes, locked:    0 /   0

     iteration # 22     ecut=    60.00 Ry     beta= 0.30
     Davidson diagonalization with overlap

---- Real-time Memory Report at c_bands before calling an iterative solver
           693 MiB given to the printing process from OS
             0 MiB allocation reported by mallinfo(arena+hblkhd)
       1364591 MiB available memory on the node where the printing process lives
     GPU memory used/free/total (MiB): 928 / 80222 / 81151
------------------
     ethr =  5.10E-05,  avg # of iterations =  1.0

     total cpu time spent up to now is       27.1 secs

     total energy              =    -474.94954054 Ry
     estimated scf accuracy    <       0.04623383 Ry

     total magnetization       =    -0.20 Bohr mag/cell
     absolute magnetization    =     0.24 Bohr mag/cell
[tb_dev] Currently allocated     3.05E-05 Mbytes, locked:    0 /   2
[tb_pin] Currently allocated     0.00E+00 Mbytes, locked:    0 /   0

     iteration # 23     ecut=    60.00 Ry     beta= 0.30
     Davidson diagonalization with overlap

---- Real-time Memory Report at c_bands before calling an iterative solver
           693 MiB given to the printing process from OS
             0 MiB allocation reported by mallinfo(arena+hblkhd)
       1364607 MiB available memory on the node where the printing process lives
     GPU memory used/free/total (MiB): 928 / 80222 / 81151
------------------
     ethr =  5.10E-05,  avg # of iterations =  1.1

     total cpu time spent up to now is       28.1 secs

     total energy              =    -474.93855089 Ry
     estimated scf accuracy    <       0.06941659 Ry

     total magnetization       =    -0.23 Bohr mag/cell
     absolute magnetization    =     0.28 Bohr mag/cell
[tb_dev] Currently allocated     3.05E-05 Mbytes, locked:    0 /   2
[tb_pin] Currently allocated     0.00E+00 Mbytes, locked:    0 /   0

     iteration # 24     ecut=    60.00 Ry     beta= 0.30
     Davidson diagonalization with overlap

---- Real-time Memory Report at c_bands before calling an iterative solver
           693 MiB given to the printing process from OS
             0 MiB allocation reported by mallinfo(arena+hblkhd)
       1364670 MiB available memory on the node where the printing process lives
     GPU memory used/free/total (MiB): 928 / 80222 / 81151
------------------
     ethr =  5.10E-05,  avg # of iterations =  1.8

     total cpu time spent up to now is       29.1 secs

     total energy              =    -474.94830713 Ry
     estimated scf accuracy    <       0.00236096 Ry

     total magnetization       =     0.06 Bohr mag/cell
     absolute magnetization    =     0.10 Bohr mag/cell
[tb_dev] Currently allocated     3.05E-05 Mbytes, locked:    0 /   2
[tb_pin] Currently allocated     0.00E+00 Mbytes, locked:    0 /   0

     iteration # 25     ecut=    60.00 Ry     beta= 0.30
     Davidson diagonalization with overlap

---- Real-time Memory Report at c_bands before calling an iterative solver
           693 MiB given to the printing process from OS
             0 MiB allocation reported by mallinfo(arena+hblkhd)
       1364703 MiB available memory on the node where the printing process lives
     GPU memory used/free/total (MiB): 928 / 80222 / 81151
------------------
     c_bands:  1 eigenvalues not converged
     ethr =  7.31E-06,  avg # of iterations =  4.3

     total cpu time spent up to now is       30.5 secs

     total energy              =    -474.94937501 Ry
     estimated scf accuracy    <       0.00037509 Ry

     total magnetization       =     0.18 Bohr mag/cell
     absolute magnetization    =     0.21 Bohr mag/cell
[tb_dev] Currently allocated     3.05E-05 Mbytes, locked:    0 /   2
[tb_pin] Currently allocated     0.00E+00 Mbytes, locked:    0 /   0

     iteration # 26     ecut=    60.00 Ry     beta= 0.30
     Davidson diagonalization with overlap

---- Real-time Memory Report at c_bands before calling an iterative solver
           694 MiB given to the printing process from OS
             0 MiB allocation reported by mallinfo(arena+hblkhd)
       1364812 MiB available memory on the node where the printing process lives
     GPU memory used/free/total (MiB): 928 / 80222 / 81151
------------------
     ethr =  1.16E-06,  avg # of iterations =  4.0

     total cpu time spent up to now is       31.8 secs

     total energy              =    -474.94947560 Ry
     estimated scf accuracy    <       0.00015628 Ry

     total magnetization       =     0.20 Bohr mag/cell
     absolute magnetization    =     0.23 Bohr mag/cell
[tb_dev] Currently allocated     3.05E-05 Mbytes, locked:    0 /   2
[tb_pin] Currently allocated     0.00E+00 Mbytes, locked:    0 /   0

     iteration # 27     ecut=    60.00 Ry     beta= 0.30
     Davidson diagonalization with overlap

---- Real-time Memory Report at c_bands before calling an iterative solver
           694 MiB given to the printing process from OS
             0 MiB allocation reported by mallinfo(arena+hblkhd)
       1364893 MiB available memory on the node where the printing process lives
     GPU memory used/free/total (MiB): 928 / 80222 / 81151
------------------
     ethr =  4.84E-07,  avg # of iterations =  3.8

     total cpu time spent up to now is       33.1 secs

     total energy              =    -474.94959084 Ry
     estimated scf accuracy    <       0.00003759 Ry

     total magnetization       =     0.17 Bohr mag/cell
     absolute magnetization    =     0.19 Bohr mag/cell
[tb_dev] Currently allocated     3.05E-05 Mbytes, locked:    0 /   2
[tb_pin] Currently allocated     0.00E+00 Mbytes, locked:    0 /   0

     iteration # 28     ecut=    60.00 Ry     beta= 0.30
     Davidson diagonalization with overlap

---- Real-time Memory Report at c_bands before calling an iterative solver
           694 MiB given to the printing process from OS
             0 MiB allocation reported by mallinfo(arena+hblkhd)
       1365542 MiB available memory on the node where the printing process lives
     GPU memory used/free/total (MiB): 928 / 80222 / 81151
------------------
     ethr =  1.16E-07,  avg # of iterations =  3.0

     total cpu time spent up to now is       34.3 secs

     total energy              =    -474.94960524 Ry
     estimated scf accuracy    <       0.00001748 Ry

     total magnetization       =     0.17 Bohr mag/cell
     absolute magnetization    =     0.19 Bohr mag/cell
[tb_dev] Currently allocated     3.05E-05 Mbytes, locked:    0 /   2
[tb_pin] Currently allocated     0.00E+00 Mbytes, locked:    0 /   0

     iteration # 29     ecut=    60.00 Ry     beta= 0.30
     Davidson diagonalization with overlap

---- Real-time Memory Report at c_bands before calling an iterative solver
           694 MiB given to the printing process from OS
             0 MiB allocation reported by mallinfo(arena+hblkhd)
       1365361 MiB available memory on the node where the printing process lives
     GPU memory used/free/total (MiB): 928 / 80222 / 81151
------------------
     ethr =  5.41E-08,  avg # of iterations =  3.7

     total cpu time spent up to now is       35.6 secs

     total energy              =    -474.94961840 Ry
     estimated scf accuracy    <       0.00001318 Ry

     total magnetization       =     0.16 Bohr mag/cell
     absolute magnetization    =     0.18 Bohr mag/cell
[tb_dev] Currently allocated     3.05E-05 Mbytes, locked:    0 /   2
[tb_pin] Currently allocated     0.00E+00 Mbytes, locked:    0 /   0

     iteration # 30     ecut=    60.00 Ry     beta= 0.30
     Davidson diagonalization with overlap

---- Real-time Memory Report at c_bands before calling an iterative solver
           694 MiB given to the printing process from OS
             0 MiB allocation reported by mallinfo(arena+hblkhd)
       1365313 MiB available memory on the node where the printing process lives
     GPU memory used/free/total (MiB): 928 / 80222 / 81151
------------------
     ethr =  4.08E-08,  avg # of iterations =  1.7

     total cpu time spent up to now is       36.6 secs

     total energy              =    -474.94962261 Ry
     estimated scf accuracy    <       0.00000434 Ry

     total magnetization       =     0.15 Bohr mag/cell
     absolute magnetization    =     0.17 Bohr mag/cell
[tb_dev] Currently allocated     3.05E-05 Mbytes, locked:    0 /   2
[tb_pin] Currently allocated     0.00E+00 Mbytes, locked:    0 /   0

     iteration # 31     ecut=    60.00 Ry     beta= 0.30
     Davidson diagonalization with overlap

---- Real-time Memory Report at c_bands before calling an iterative solver
           694 MiB given to the printing process from OS
             0 MiB allocation reported by mallinfo(arena+hblkhd)
       1365282 MiB available memory on the node where the printing process lives
     GPU memory used/free/total (MiB): 928 / 80222 / 81151
------------------
     ethr =  1.34E-08,  avg # of iterations =  4.4

     total cpu time spent up to now is       38.0 secs

     total energy              =    -474.94963500 Ry
     estimated scf accuracy    <       0.00000223 Ry

     total magnetization       =     0.14 Bohr mag/cell
     absolute magnetization    =     0.15 Bohr mag/cell
[tb_dev] Currently allocated     3.05E-05 Mbytes, locked:    0 /   2
[tb_pin] Currently allocated     0.00E+00 Mbytes, locked:    0 /   0

     iteration # 32     ecut=    60.00 Ry     beta= 0.30
     Davidson diagonalization with overlap

---- Real-time Memory Report at c_bands before calling an iterative solver
           694 MiB given to the printing process from OS
             0 MiB allocation reported by mallinfo(arena+hblkhd)
       1365254 MiB available memory on the node where the printing process lives
     GPU memory used/free/total (MiB): 928 / 80222 / 81151
------------------
     ethr =  6.90E-09,  avg # of iterations =  3.2

     total cpu time spent up to now is       39.3 secs

     total energy              =    -474.94964020 Ry
     estimated scf accuracy    <       0.00000134 Ry

     total magnetization       =     0.12 Bohr mag/cell
     absolute magnetization    =     0.13 Bohr mag/cell
[tb_dev] Currently allocated     3.05E-05 Mbytes, locked:    0 /   2
[tb_pin] Currently allocated     0.00E+00 Mbytes, locked:    0 /   0

     iteration # 33     ecut=    60.00 Ry     beta= 0.30
     Davidson diagonalization with overlap

---- Real-time Memory Report at c_bands before calling an iterative solver
           694 MiB given to the printing process from OS
             0 MiB allocation reported by mallinfo(arena+hblkhd)
       1365240 MiB available memory on the node where the printing process lives
     GPU memory used/free/total (MiB): 928 / 80222 / 81151
------------------
     ethr =  4.14E-09,  avg # of iterations =  3.8

     total cpu time spent up to now is       40.6 secs

     total energy              =    -474.94963590 Ry
     estimated scf accuracy    <       0.00000095 Ry

     total magnetization       =     0.11 Bohr mag/cell
     absolute magnetization    =     0.12 Bohr mag/cell
[tb_dev] Currently allocated     3.05E-05 Mbytes, locked:    0 /   2
[tb_pin] Currently allocated     0.00E+00 Mbytes, locked:    0 /   0

     iteration # 34     ecut=    60.00 Ry     beta= 0.30
     Davidson diagonalization with overlap

---- Real-time Memory Report at c_bands before calling an iterative solver
           694 MiB given to the printing process from OS
             0 MiB allocation reported by mallinfo(arena+hblkhd)
       1365305 MiB available memory on the node where the printing process lives
     GPU memory used/free/total (MiB): 928 / 80222 / 81151
------------------
     ethr =  2.94E-09,  avg # of iterations =  4.3

     total cpu time spent up to now is       42.0 secs

     total energy              =    -474.94964155 Ry
     estimated scf accuracy    <       0.00000046 Ry

     total magnetization       =     0.09 Bohr mag/cell
     absolute magnetization    =     0.10 Bohr mag/cell
[tb_dev] Currently allocated     3.05E-05 Mbytes, locked:    0 /   2
[tb_pin] Currently allocated     0.00E+00 Mbytes, locked:    0 /   0

     iteration # 35     ecut=    60.00 Ry     beta= 0.30
     Davidson diagonalization with overlap

---- Real-time Memory Report at c_bands before calling an iterative solver
           694 MiB given to the printing process from OS
             0 MiB allocation reported by mallinfo(arena+hblkhd)
       1365372 MiB available memory on the node where the printing process lives
     GPU memory used/free/total (MiB): 928 / 80222 / 81151
------------------
     ethr =  1.41E-09,  avg # of iterations =  5.5

     total cpu time spent up to now is       43.6 secs

     total energy              =    -474.94965022 Ry
     estimated scf accuracy    <       0.00000023 Ry

     total magnetization       =     0.08 Bohr mag/cell
     absolute magnetization    =     0.08 Bohr mag/cell
[tb_dev] Currently allocated     3.05E-05 Mbytes, locked:    0 /   2
[tb_pin] Currently allocated     0.00E+00 Mbytes, locked:    0 /   0

     iteration # 36     ecut=    60.00 Ry     beta= 0.30
     Davidson diagonalization with overlap

---- Real-time Memory Report at c_bands before calling an iterative solver
           694 MiB given to the printing process from OS
             0 MiB allocation reported by mallinfo(arena+hblkhd)
       1365501 MiB available memory on the node where the printing process lives
     GPU memory used/free/total (MiB): 928 / 80222 / 81151
------------------
     ethr =  6.97E-10,  avg # of iterations =  4.8

     total cpu time spent up to now is       45.1 secs

     total energy              =    -474.94964729 Ry
     estimated scf accuracy    <       0.00000015 Ry

     total magnetization       =     0.07 Bohr mag/cell
     absolute magnetization    =     0.07 Bohr mag/cell
[tb_dev] Currently allocated     3.05E-05 Mbytes, locked:    0 /   2
[tb_pin] Currently allocated     0.00E+00 Mbytes, locked:    0 /   0

     iteration # 37     ecut=    60.00 Ry     beta= 0.30
     Davidson diagonalization with overlap

---- Real-time Memory Report at c_bands before calling an iterative solver
           694 MiB given to the printing process from OS
             0 MiB allocation reported by mallinfo(arena+hblkhd)
       1365580 MiB available memory on the node where the printing process lives
     GPU memory used/free/total (MiB): 928 / 80222 / 81151
------------------
     ethr =  4.60E-10,  avg # of iterations =  5.8
 
     Magnetic moment per site  (integrated on atomic sphere of radius R)
     atom   1 (R=0.276)  charge= 14.1446  magn=  0.0400
     atom   2 (R=0.276)  charge=  5.2389  magn= -0.0006
     atom   3 (R=0.276)  charge=  5.2607  magn=  0.0001
     atom   4 (R=0.338)  charge=  2.1968  magn=  0.0025

     total cpu time spent up to now is       46.6 secs

     End of self-consistent calculation

 ------ SPIN UP ------------


          k = 0.0000 0.0000 0.0000 (  2029 PWs)   bands (ev):

   -85.3903 -48.6807 -48.6807 -48.6317 -37.7637 -11.0748  -9.1664   2.2113
     3.8434   3.8434   6.1387   7.1218   7.1218   8.4295   8.4295   9.2520
    11.7220  11.9611  11.9611  16.3029  19.1328  22.5281  24.5524  24.5524

     occupation numbers 
     1.0000   1.0000   1.0000   1.0000   1.0000   1.0000   1.0000   1.0000
     1.0000   1.0000   1.0000   1.0000   1.0000   1.0000   1.0000   1.0000
     0.0000   0.0000   0.0000   0.0000   0.0000   0.0000   0.0000   0.0000

          k = 0.0000 0.0000 0.1709 (  2024 PWs)   bands (ev):

   -85.3903 -48.6807 -48.6807 -48.6317 -37.7636 -11.0636  -9.1897   2.5034
     3.8448   3.8448   5.4341   7.1177   7.1177   8.4279   8.4279   9.5287
    11.9688  11.9688  12.4877  15.5127  18.9016  22.9302  24.7115  24.7115

     occupation numbers 
     1.0000   1.0000   1.0000   1.0000   1.0000   1.0000   1.0000   1.0000
     1.0000   1.0000   1.0000   1.0000   1.0000   1.0000   1.0000   1.0000
     0.0000   0.0000   0.0000   0.0000   0.0000   0.0000   0.0000   0.0000

          k = 0.0000 0.1443 0.0000 (  2019 PWs)   bands (ev):

   -85.3892 -48.6924 -48.6835 -48.6299 -37.7594 -10.8845  -9.1453   2.4389
     3.4548   3.9404   6.0530   6.5934   6.6530   8.6380   8.8153   9.2794
    11.3695  11.8585  12.1633  16.8188  19.5426  22.8424  23.3787  23.9507

     occupation numbers 
     1.0000   1.0000   1.0000   1.0000   1.0000   1.0000   1.0000   1.0000
     1.0000   1.0000   1.0000   1.0000   1.0000   1.0000   1.0000   1.0000
     0.0002   0.0000   0.0000   0.0000   0.0000   0.0000   0.0000   0.0000

          k = 0.0000 0.1443 0.1709 (  2019 PWs)   bands (ev):

   -85.3892 -48.6924 -48.6835 -48.6299 -37.7594 -10.8728  -9.1677   2.7107
     3.3898   3.9391   5.9511   6.1195   6.6568   8.6166   8.8157   9.5827
    11.2398  11.8530  12.9560  16.0648  19.5554  22.7345  23.5375  23.9429

     occupation numbers 
     1.0000   1.0000   1.0000   1.0000   1.0000   1.0000   1.0000   1.0000
     1.0000   1.0000   1.0000   1.0000   1.0000   1.0000   1.0000   1.0000
     0.0027   0.0000   0.0000   0.0000   0.0000   0.0000   0.0000   0.0000

          k = 0.0000 0.2887 0.0000 (  2021 PWs)   bands (ev):

   -85.3865 -48.7208 -48.6901 -48.6255 -37.7492 -10.3845  -9.1056   2.8661
     3.0950   4.1640   4.4043   6.0064   6.7899   8.6842   9.1738   9.3710
    10.7685  11.7403  12.8311  17.4618  20.2489  20.9412  22.7392  23.6357

     occupation numbers 
     1.0000   1.0000   1.0000   1.0000   1.0000   1.0000   1.0000   1.0000
     1.0000   1.0000   1.0000   1.0000   1.0000   1.0000   1.0000   1.0000
     0.5086   0.0000   0.0000   0.0000   0.0000   0.0000   0.0000   0.0000

          k = 0.0000 0.2887 0.1709 (  2008 PWs)   bands (ev):

   -85.3864 -48.7209 -48.6901 -48.6254 -37.7491 -10.3730  -9.1233   2.7221
     3.3335   4.1567   4.4369   6.0204   6.5931   8.5933   9.1794   9.5888
    10.4531  11.7151  13.4545  17.1023  20.0882  20.9928  22.7738  23.1672

     occupation numbers 
     1.0000   1.0000   1.0000   1.0000   1.0000   1.0000   1.0000   1.0000
     1.0000   1.0000   1.0000   1.0000   1.0000   1.0000   1.0000   1.0000
     1.0804   0.0000   0.0000   0.0000   0.0000   0.0000   0.0000   0.0000

          k = 0.0000 0.4330 0.0000 (  2014 PWs)   bands (ev):

   -85.3837 -48.7494 -48.6968 -48.6209 -37.7388  -9.7891  -9.1079   2.3096
     3.2665   4.1187   4.3309   5.6579   5.9898   8.5896   9.1516   9.3817
    11.0989  11.7969  13.2999  17.3647  18.8270  20.9816  21.7888  23.1679

     occupation numbers 
     1.0000   1.0000   1.0000   1.0000   1.0000   1.0000   1.0000   1.0000
     1.0000   1.0000   1.0000   1.0000   1.0000   1.0000   1.0000   1.0000
     0.0235   0.0000   0.0000   0.0000   0.0000   0.0000   0.0000   0.0000

          k = 0.0000 0.4330 0.1709 (  1996 PWs)   bands (ev):

   -85.3837 -48.7493 -48.6967 -48.6209 -37.7387  -9.7833  -9.1140   2.1746
     3.2328   4.2706   4.3136   5.6873   6.2425   8.4566   9.1543   9.4186
    10.7422  11.7576  13.5874  17.5562  18.4206  21.3337  21.9192  22.6263

     occupation numbers 
     1.0000   1.0000   1.0000   1.0000   1.0000   1.0000   1.0000   1.0000
     1.0000   1.0000   1.0000   1.0000   1.0000   1.0000   1.0000   1.0000
     0.5811   0.0000   0.0000   0.0000   0.0000   0.0000   0.0000   0.0000

          k = 0.0000-0.5774 0.0000 (  1982 PWs)   bands (ev):

   -85.3825 -48.7609 -48.6995 -48.6190 -37.7344  -9.4533  -9.1771   1.8701
     3.2982   4.3610   4.6778   5.2561   5.5964   8.4921   9.0701   9.3500
    11.4680  11.8579  13.4111  17.0300  18.3562  20.9119  21.4450  23.0345

     occupation numbers 
     1.0000   1.0000   1.0000   1.0000   1.0000   1.0000   1.0000   1.0000
     1.0000   1.0000   1.0000   1.0000   1.0000   1.0000   1.0000   1.0000
     0.0000   0.0000   0.0000   0.0000   0.0000   0.0000   0.0000   0.0000

          k = 0.0000-0.5774 0.1709 (  2004 PWs)   bands (ev):

   -85.3826 -48.7611 -48.6995 -48.6191 -37.7345  -9.4520  -9.1771   1.7710
     3.2558   4.3433   4.5918   5.6263   5.7146   8.3840   9.0697   9.3209
    11.2926  11.8193  13.4350  16.8253  19.1341  20.4463  21.6136  23.0814

     occupation numbers 
     1.0000   1.0000   1.0000   1.0000   1.0000   1.0000   1.0000   1.0000
     1.0000   1.0000   1.0000   1.0000   1.0000   1.0000   1.0000   1.0000
     0.0011   0.0000   0.0000   0.0000   0.0000   0.0000   0.0000   0.0000

          k = 0.1250 0.2165 0.0000 (  2017 PWs)   bands (ev):

   -85.3873 -48.7112 -48.6896 -48.6267 -37.7521 -10.5390  -9.1142   2.8463
     3.0940   4.0279   4.9862   5.9251   6.8841   8.7982   9.0912   9.3454
    11.0969  11.3087  12.8123  17.3822  20.1831  21.6806  22.4075  23.6954

     occupation numbers 
     1.0000   1.0000   1.0000   1.0000   1.0000   1.0000   1.0000   1.0000
     1.0000   1.0000   1.0000   1.0000   1.0000   1.0000   1.0000   1.0000
     0.0242   0.0008   0.0000   0.0000   0.0000   0.0000   0.0000   0.0000

          k = 0.1250 0.2165 0.1709 (  2012 PWs)   bands (ev):

   -85.3872 -48.7111 -48.6895 -48.6267 -37.7521 -10.5261  -9.1355   2.8920
     3.2103   4.0306   4.9851   5.9129   6.4930   8.8156   9.0285   9.5634
    10.8644  11.5415  13.2193  17.0213  20.2225  21.3860  22.6241  23.3444

     occupation numbers 
     1.0000   1.0000   1.0000   1.0000   1.0000   1.0000   1.0000   1.0000
     1.0000   1.0000   1.0000   1.0000   1.0000   1.0000   1.0000   1.0000
     0.2741   0.0000   0.0000   0.0000   0.0000   0.0000   0.0000   0.0000

          k = 0.1250 0.3608 0.0000 (  2004 PWs)   bands (ev):

   -85.3845 -48.7367 -48.6991 -48.6222 -37.7418  -9.9898  -9.0888   2.7564
     3.2828   3.8649   4.3232   5.3385   6.4851   8.7732   9.2637   9.3758
    10.8835  11.3723  13.4263  17.5979  19.3471  20.7374  22.0216  23.8103

     occupation numbers 
     1.0000   1.0000   1.0000   1.0000   1.0000   1.0000   1.0000   1.0000
     1.0000   1.0000   1.0000   1.0000   1.0000   1.0000   1.0000   1.0000
     0.2362   0.0002   0.0000   0.0000   0.0000   0.0000   0.0000   0.0000

          k = 0.1250 0.3608 0.1709 (  2005 PWs)   bands (ev):

   -85.3845 -48.7367 -48.6991 -48.6223 -37.7418  -9.9790  -9.1026   2.6025
     3.2824   4.1022   4.3215   5.3531   6.4704   8.7238   9.2068   9.4291
    10.7051  11.4697  13.5611  17.8385  18.8322  20.6349  22.5295  23.1818

     occupation numbers 
     1.0000   1.0000   1.0000   1.0000   1.0000   1.0000   1.0000   1.0000
     1.0000   1.0000   1.0000   1.0000   1.0000   1.0000   1.0000   1.0000
     0.6834   0.0000   0.0000   0.0000   0.0000   0.0000   0.0000   0.0000

          k = 0.1250 0.5052 0.0000 (  1995 PWs)   bands (ev):

   -85.3826 -48.7546 -48.7060 -48.6189 -37.7345  -9.5114  -9.1216   2.1821
     3.2045   4.2898   4.5198   5.1010   5.6125   8.6680   9.1231   9.3972
    11.2115  11.4949  13.8282  16.9311  18.5728  20.5622  22.0813  23.2455

     occupation numbers 
     1.0000   1.0000   1.0000   1.0000   1.0000   1.0000   1.0000   1.0000
     1.0000   1.0000   1.0000   1.0000   1.0000   1.0000   1.0000   1.0000
     0.0044   0.0000   0.0000   0.0000   0.0000   0.0000   0.0000   0.0000

          k = 0.1250 0.5052 0.1709 (  1996 PWs)   bands (ev):

   -85.3826 -48.7546 -48.7060 -48.6190 -37.7344  -9.5093  -9.1225   2.0749
     3.1401   4.2954   4.5452   5.1613   5.9040   8.5646   9.1386   9.3529
    11.1246  11.5946  13.6517  16.8234  18.8632  20.4252  22.0213  23.2215

     occupation numbers 
     1.0000   1.0000   1.0000   1.0000   1.0000   1.0000   1.0000   1.0000
     1.0000   1.0000   1.0000   1.0000   1.0000   1.0000   1.0000   1.0000
     0.0165   0.0000   0.0000   0.0000   0.0000   0.0000   0.0000   0.0000

          k = 0.2500 0.4330 0.0000 (  2011 PWs)   bands (ev):

   -85.3826 -48.7458 -48.7152 -48.6190 -37.7345  -9.5562  -9.0793   2.7566
     2.9814   4.0142   4.3748   4.8091   5.8818   8.7849   9.1711   9.4905
    10.8077  11.3525  14.1559  16.7736  18.8055  20.3899  22.7696  23.8131

     occupation numbers 
     1.0000   1.0000   1.0000   1.0000   1.0000   1.0000   1.0000   1.0000
     1.0000   1.0000   1.0000   1.0000   1.0000   1.0000   1.0000   1.0000
     0.4053   0.0003   0.0000   0.0000   0.0000   0.0000   0.0000   0.0000

          k = 0.2500 0.4330 0.1709 (  2010 PWs)   bands (ev):

   -85.3826 -48.7457 -48.7151 -48.6191 -37.7345  -9.5475  -9.0882   2.6776
     2.8660   3.9956   4.6327   4.8401   5.8912   8.7933   9.1809   9.3442
    11.0778  11.4022  13.7697  16.7218  19.0377  20.1717  22.3980  23.8388

     occupation numbers 
     1.0000   1.0000   1.0000   1.0000   1.0000   1.0000   1.0000   1.0000
     1.0000   1.0000   1.0000   1.0000   1.0000   1.0000   1.0000   1.0000
     0.0311   0.0001   0.0000   0.0000   0.0000   0.0000   0.0000   0.0000

          k = 0.2500 0.5774 0.0000 (  1978 PWs)   bands (ev):

   -85.3817 -48.7462 -48.7246 -48.6175 -37.7314  -9.3595  -9.0809   2.6013
     3.0933   3.7112   4.6501   4.9836   5.2834   8.6561   9.2840   9.4707
    10.9704  11.1850  14.6713  15.9554  18.8689  20.2896  23.2846  23.6810

     occupation numbers 
     1.0000   1.0000   1.0000   1.0000   1.0000   1.0000   1.0000   1.0000
     1.0000   1.0000   1.0000   1.0000   1.0000   1.0000   1.0000   1.0000
     0.1072   0.0067   0.0000   0.0000   0.0000   0.0000   0.0000   0.0000

          k = 0.2500 0.5774 0.1709 (  2008 PWs)   bands (ev):

   -85.3818 -48.7463 -48.7247 -48.6178 -37.7315  -9.3579  -9.0813   2.5166
     3.0113   3.6582   4.7648   5.0494   5.4161   8.6320   9.2814   9.3800
    11.2012  11.3881  14.2149  15.6408  19.1418  20.2087  22.6136  23.8328

     occupation numbers 
     1.0000   1.0000   1.0000   1.0000   1.0000   1.0000   1.0000   1.0000
     1.0000   1.0000   1.0000   1.0000   1.0000   1.0000   1.0000   1.0000
     0.0052   0.0002   0.0000   0.0000   0.0000   0.0000   0.0000   0.0000

          k = 0.0000-0.1443 0.1709 (  2019 PWs)   bands (ev):

   -85.3892 -48.6924 -48.6835 -48.6299 -37.7594 -10.8724  -9.1685   2.7240
     3.3882   3.9442   5.8601   6.1899   6.6418   8.6247   8.8163   9.5605
    11.3672  11.8712  12.7814  16.1650  19.4869  22.8175  23.5108  24.0343

     occupation numbers 
     1.0000   1.0000   1.0000   1.0000   1.0000   1.0000   1.0000   1.0000
     1.0000   1.0000   1.0000   1.0000   1.0000   1.0000   1.0000   1.0000
     0.0002   0.0000   0.0000   0.0000   0.0000   0.0000   0.0000   0.0000

          k = 0.0000-0.2887 0.1709 (  2008 PWs)   bands (ev):

   -85.3864 -48.7209 -48.6901 -48.6254 -37.7491 -10.3700  -9.1283   2.8038
     3.3147   4.1682   4.4337   5.9970   6.3949   8.6688   9.1782   9.4741
    10.8589  11.7415  13.0344  17.5340  19.6252  21.6874  22.7888  23.0432

     occupation numbers 
     1.0000   1.0000   1.0000   1.0000   1.0000   1.0000   1.0000   1.0000
     1.0000   1.0000   1.0000   1.0000   1.0000   1.0000   1.0000   1.0000
     0.2857   0.0000   0.0000   0.0000   0.0000   0.0000   0.0000   0.0000

          k = 0.0000-0.4330 0.1709 (  1996 PWs)   bands (ev):

   -85.3837 -48.7493 -48.6967 -48.6209 -37.7387  -9.7740  -9.1261   2.2274
     3.2146   4.3258   4.4180   5.6663   5.8689   8.5561   9.1559   9.3418
    11.1564  11.7746  13.1965  17.5962  19.1996  20.5831  21.9132  23.4089

     occupation numbers 
     1.0000   1.0000   1.0000   1.0000   1.0000   1.0000   1.0000   1.0000
     1.0000   1.0000   1.0000   1.0000   1.0000   1.0000   1.0000   1.0000
     0.0104   0.0000   0.0000   0.0000   0.0000   0.0000   0.0000   0.0000

          k =-0.1250-0.3608 0.1709 (  2005 PWs)   bands (ev):

   -85.3845 -48.7367 -48.6991 -48.6223 -37.7418  -9.9753  -9.1078   2.6547
     3.2626   4.1285   4.3375   5.3419   6.2873   8.8260   9.1856   9.3448
    11.0541  11.3669  13.3525  17.9909  19.0633  20.5545  22.1315  23.6709

     occupation numbers 
     1.0000   1.0000   1.0000   1.0000   1.0000   1.0000   1.0000   1.0000
     1.0000   1.0000   1.0000   1.0000   1.0000   1.0000   1.0000   1.0000
     0.0419   0.0003   0.0000   0.0000   0.0000   0.0000   0.0000   0.0000

          k =-0.1250-0.5052 0.1709 (  1996 PWs)   bands (ev):

   -85.3826 -48.7546 -48.7060 -48.6190 -37.7344  -9.5016  -9.1314   2.0949
     3.1366   4.2905   4.6628   5.1616   5.6894   8.6294   9.1277   9.3131
    11.3639  11.5118  13.5383  16.7800  19.4272  20.1056  21.6680  23.5381

     occupation numbers 
     1.0000   1.0000   1.0000   1.0000   1.0000   1.0000   1.0000   1.0000
     1.0000   1.0000   1.0000   1.0000   1.0000   1.0000   1.0000   1.0000
     0.0003   0.0000   0.0000   0.0000   0.0000   0.0000   0.0000   0.0000

 ------ SPIN DOWN ----------


          k = 0.0000 0.0000 0.0000 (  2029 PWs)   bands (ev):

   -85.3338 -48.6239 -48.6239 -48.5808 -37.7601 -11.0731  -9.1654   2.2186
     3.8697   3.8697   6.1406   7.1229   7.1229   8.4575   8.4575   9.2780
    11.7518  12.0169  12.0169  16.3131  19.1478  22.5349  24.5658  24.5658

     occupation numbers 
     1.0000   1.0000   1.0000   1.0000   1.0000   1.0000   1.0000   1.0000
     1.0000   1.0000   1.0000   1.0000   1.0000   1.0000   1.0000   1.0000
     0.0000   0.0000   0.0000   0.0000   0.0000   0.0000   0.0000   0.0000

          k = 0.0000 0.0000 0.1709 (  2024 PWs)   bands (ev):

   -85.3338 -48.6238 -48.6238 -48.5808 -37.7600 -11.0620  -9.1885   2.5086
     3.8711   3.8711   5.4429   7.1188   7.1188   8.4558   8.4558   9.5503
    12.0246  12.0246  12.5179  15.5254  18.9116  22.9403  24.7253  24.7253

     occupation numbers 
     1.0000   1.0000   1.0000   1.0000   1.0000   1.0000   1.0000   1.0000
     1.0000   1.0000   1.0000   1.0000   1.0000   1.0000   1.0000   1.0000
     0.0000   0.0000   0.0000   0.0000   0.0000   0.0000   0.0000   0.0000

          k = 0.0000 0.1443 0.0000 (  2019 PWs)   bands (ev):

   -85.3327 -48.6355 -48.6267 -48.5790 -37.7558 -10.8828  -9.1441   2.4459
     3.4755   3.9666   6.0594   6.5958   6.6588   8.6624   8.8373   9.3054
    11.4253  11.9162  12.1962  16.8316  19.5564  22.8507  23.3943  23.9680

     occupation numbers 
     1.0000   1.0000   1.0000   1.0000   1.0000   1.0000   1.0000   1.0000
     1.0000   1.0000   1.0000   1.0000   1.0000   1.0000   1.0000   1.0000
     0.0001   0.0000   0.0000   0.0000   0.0000   0.0000   0.0000   0.0000

          k = 0.0000 0.1443 0.1709 (  2019 PWs)   bands (ev):

   -85.3327 -48.6356 -48.6266 -48.5790 -37.7558 -10.8712  -9.1664   2.7163
     3.4097   3.9653   5.9605   6.1256   6.6626   8.6410   8.8376   9.6041
    11.2938  11.9108  12.9926  16.0776  19.5655  22.7502  23.5509  23.9605

     occupation numbers 
     1.0000   1.0000   1.0000   1.0000   1.0000   1.0000   1.0000   1.0000
     1.0000   1.0000   1.0000   1.0000   1.0000   1.0000   1.0000   1.0000
     0.0010   0.0000   0.0000   0.0000   0.0000   0.0000   0.0000   0.0000

          k = 0.0000 0.2887 0.0000 (  2021 PWs)   bands (ev):

   -85.3300 -48.6641 -48.6333 -48.5746 -37.7456 -10.3829  -9.1040   2.8771
     3.1021   4.1901   4.4143   6.0127   6.7912   8.7076   9.1940   9.3953
    10.8333  11.8007  12.8662  17.4779  20.2645  20.9624  22.7603  23.6444

     occupation numbers 
     1.0000   1.0000   1.0000   1.0000   1.0000   1.0000   1.0000   1.0000
     1.0000   1.0000   1.0000   1.0000   1.0000   1.0000   1.0000   1.0000
     0.3431   0.0000   0.0000   0.0000   0.0000   0.0000   0.0000   0.0000

          k = 0.0000 0.2887 0.1709 (  2008 PWs)   bands (ev):

   -85.3300 -48.6641 -48.6332 -48.5745 -37.7455 -10.3715  -9.1216   2.7348
     3.3381   4.1829   4.4463   6.0265   6.5965   8.6162   9.1996   9.6101
    10.5188  11.7757  13.4940  17.1150  20.1118  21.0078  22.7948  23.1758

     occupation numbers 
     1.0000   1.0000   1.0000   1.0000   1.0000   1.0000   1.0000   1.0000
     1.0000   1.0000   1.0000   1.0000   1.0000   1.0000   1.0000   1.0000
     1.0455   0.0000   0.0000   0.0000   0.0000   0.0000   0.0000   0.0000

          k = 0.0000 0.4330 0.0000 (  2014 PWs)   bands (ev):

   -85.3273 -48.6927 -48.6400 -48.5700 -37.7353  -9.7874  -9.1060   2.3142
     3.2728   4.1294   4.3573   5.6614   5.9965   8.6156   9.1769   9.4044
    11.1643  11.8561  13.3373  17.3898  18.8455  20.9947  21.8111  23.1767

     occupation numbers 
     1.0000   1.0000   1.0000   1.0000   1.0000   1.0000   1.0000   1.0000
     1.0000   1.0000   1.0000   1.0000   1.0000   1.0000   1.0000   1.0000
     0.0092   0.0000   0.0000   0.0000   0.0000   0.0000   0.0000   0.0000

          k = 0.0000 0.4330 0.1709 (  1996 PWs)   bands (ev):

   -85.3272 -48.6926 -48.6399 -48.5700 -37.7352  -9.7816  -9.1121   2.1801
     3.2402   4.2797   4.3400   5.6908   6.2456   8.4812   9.1796   9.4416
    10.8103  11.8169  13.6274  17.5813  18.4383  21.3476  21.9417  22.6346

     occupation numbers 
     1.0000   1.0000   1.0000   1.0000   1.0000   1.0000   1.0000   1.0000
     1.0000   1.0000   1.0000   1.0000   1.0000   1.0000   1.0000   1.0000
     0.3989   0.0000   0.0000   0.0000   0.0000   0.0000   0.0000   0.0000

          k = 0.0000-0.5774 0.0000 (  1982 PWs)   bands (ev):

   -85.3261 -48.7043 -48.6427 -48.5680 -37.7309  -9.4511  -9.1756   1.8748
     3.3004   4.3874   4.6930   5.2619   5.5985   8.5203   9.0989   9.3723
    11.5343  11.9158  13.4478  17.0623  18.3679  20.9257  21.4675  23.0415

     occupation numbers 
     1.0000   1.0000   1.0000   1.0000   1.0000   1.0000   1.0000   1.0000
     1.0000   1.0000   1.0000   1.0000   1.0000   1.0000   1.0000   1.0000
     0.0000   0.0000   0.0000   0.0000   0.0000   0.0000   0.0000   0.0000

          k = 0.0000-0.5774 0.1709 (  2004 PWs)   bands (ev):

   -85.3261 -48.7045 -48.6427 -48.5682 -37.7309  -9.4497  -9.1757   1.7761
     3.2585   4.3695   4.6073   5.6282   5.7169   8.4111   9.0985   9.3441
    11.3598  11.8774  13.4735  16.8557  19.1463  20.4601  21.6365  23.0928

     occupation numbers 
     1.0000   1.0000   1.0000   1.0000   1.0000   1.0000   1.0000   1.0000
     1.0000   1.0000   1.0000   1.0000   1.0000   1.0000   1.0000   1.0000
     0.0003   0.0000   0.0000   0.0000   0.0000   0.0000   0.0000   0.0000

          k = 0.1250 0.2165 0.0000 (  2017 PWs)   bands (ev):

   -85.3308 -48.6544 -48.6327 -48.5758 -37.7486 -10.5374  -9.1126   2.8533
     3.1086   4.0539   4.9907   5.9372   6.8849   8.8208   9.1100   9.3702
    11.1606  11.3656  12.8495  17.3975  20.1956  21.7080  22.4230  23.7019

     occupation numbers 
     1.0000   1.0000   1.0000   1.0000   1.0000   1.0000   1.0000   1.0000
     1.0000   1.0000   1.0000   1.0000   1.0000   1.0000   1.0000   1.0000
     0.0098   0.0003   0.0000   0.0000   0.0000   0.0000   0.0000   0.0000

          k = 0.1250 0.2165 0.1709 (  2012 PWs)   bands (ev):

   -85.3308 -48.6544 -48.6327 -48.5758 -37.7485 -10.5246  -9.1339   2.9056
     3.2164   4.0567   4.9896   5.9254   6.4979   8.8379   9.0478   9.5852
    10.9254  11.6021  13.2572  17.0347  20.2350  21.4137  22.6386  23.3525

     occupation numbers 
     1.0000   1.0000   1.0000   1.0000   1.0000   1.0000   1.0000   1.0000
     1.0000   1.0000   1.0000   1.0000   1.0000   1.0000   1.0000   1.0000
     0.1652   0.0000   0.0000   0.0000   0.0000   0.0000   0.0000   0.0000

          k = 0.1250 0.3608 0.0000 (  2004 PWs)   bands (ev):

   -85.3280 -48.6800 -48.6422 -48.5713 -37.7383  -9.9881  -9.0869   2.7638
     3.2888   3.8807   4.3386   5.3500   6.4886   8.7958   9.2864   9.3973
    10.9480  11.4359  13.4649  17.6209  19.3698  20.7519  22.0354  23.8219

     occupation numbers 
     1.0000   1.0000   1.0000   1.0000   1.0000   1.0000   1.0000   1.0000
     1.0000   1.0000   1.0000   1.0000   1.0000   1.0000   1.0000   1.0000
     0.1338   0.0001   0.0000   0.0000   0.0000   0.0000   0.0000   0.0000

          k = 0.1250 0.3608 0.1709 (  2005 PWs)   bands (ev):

   -85.3280 -48.6800 -48.6423 -48.5713 -37.7382  -9.9774  -9.1006   2.6110
     3.2902   4.1160   4.3358   5.3644   6.4731   8.7457   9.2292   9.4520
    10.7717  11.5322  13.6008  17.8587  18.8573  20.6495  22.5379  23.1966

     occupation numbers 
     1.0000   1.0000   1.0000   1.0000   1.0000   1.0000   1.0000   1.0000
     1.0000   1.0000   1.0000   1.0000   1.0000   1.0000   1.0000   1.0000
     0.4999   0.0000   0.0000   0.0000   0.0000   0.0000   0.0000   0.0000

          k = 0.1250 0.5052 0.0000 (  1995 PWs)   bands (ev):

   -85.3261 -48.6979 -48.6492 -48.5680 -37.7309  -9.5094  -9.1198   2.1868
     3.2105   4.3081   4.5315   5.1092   5.6201   8.6932   9.1516   9.4182
    11.2747  11.5584  13.8672  16.9666  18.5831  20.5782  22.0973  23.2530

     occupation numbers 
     1.0000   1.0000   1.0000   1.0000   1.0000   1.0000   1.0000   1.0000
     1.0000   1.0000   1.0000   1.0000   1.0000   1.0000   1.0000   1.0000
     0.0015   0.0000   0.0000   0.0000   0.0000   0.0000   0.0000   0.0000

          k = 0.1250 0.5052 0.1709 (  1996 PWs)   bands (ev):

   -85.3261 -48.6980 -48.6492 -48.5681 -37.7309  -9.5073  -9.1208   2.0800
     3.1469   4.3109   4.5597   5.1703   5.9079   8.5890   9.1663   9.3751
    11.1916  11.6562  13.6908  16.8584  18.8748  20.4400  22.0341  23.2332

     occupation numbers 
     1.0000   1.0000   1.0000   1.0000   1.0000   1.0000   1.0000   1.0000
     1.0000   1.0000   1.0000   1.0000   1.0000   1.0000   1.0000   1.0000
     0.0061   0.0000   0.0000   0.0000   0.0000   0.0000   0.0000   0.0000

          k = 0.2500 0.4330 0.0000 (  2011 PWs)   bands (ev):

   -85.3261 -48.6891 -48.6584 -48.5681 -37.7310  -9.5543  -9.0774   2.7636
     2.9862   4.0232   4.3869   4.8254   5.8875   8.8075   9.1992   9.5096
    10.8715  11.4213  14.1956  16.8111  18.8159  20.4045  22.7787  23.8239

     occupation numbers 
     1.0000   1.0000   1.0000   1.0000   1.0000   1.0000   1.0000   1.0000
     1.0000   1.0000   1.0000   1.0000   1.0000   1.0000   1.0000   1.0000
     0.2596   0.0001   0.0000   0.0000   0.0000   0.0000   0.0000   0.0000

          k = 0.2500 0.4330 0.1709 (  2010 PWs)   bands (ev):

   -85.3261 -48.6891 -48.6584 -48.5681 -37.7310  -9.5457  -9.0863   2.6846
     2.8719   4.0036   4.6457   4.8559   5.8970   8.8159   9.2079   9.3653
    11.1419  11.4693  13.8086  16.7608  19.0486  20.1838  22.4065  23.8510

     occupation numbers 
     1.0000   1.0000   1.0000   1.0000   1.0000   1.0000   1.0000   1.0000
     1.0000   1.0000   1.0000   1.0000   1.0000   1.0000   1.0000   1.0000
     0.0129   0.0000   0.0000   0.0000   0.0000   0.0000   0.0000   0.0000

          k = 0.2500 0.5774 0.0000 (  1978 PWs)   bands (ev):

   -85.3253 -48.6895 -48.6679 -48.5665 -37.7278  -9.3572  -9.0794   2.6067
     3.1012   3.7150   4.6654   4.9993   5.2882   8.6803   9.3105   9.4911
    11.0357  11.2546  14.7112  15.9943  18.8787  20.3032  23.2983  23.6867

     occupation numbers 
     1.0000   1.0000   1.0000   1.0000   1.0000   1.0000   1.0000   1.0000
     1.0000   1.0000   1.0000   1.0000   1.0000   1.0000   1.0000   1.0000
     0.0523   0.0021   0.0000   0.0000   0.0000   0.0000   0.0000   0.0000

          k = 0.2500 0.5774 0.1709 (  2008 PWs)   bands (ev):

   -85.3253 -48.6897 -48.6680 -48.5669 -37.7279  -9.3556  -9.0798   2.5222
     3.0190   3.6621   4.7797   5.0664   5.4218   8.6561   9.3065   9.4016
    11.2669  11.4554  14.2543  15.6797  19.1541  20.2190  22.6234  23.8435

     occupation numbers 
     1.0000   1.0000   1.0000   1.0000   1.0000   1.0000   1.0000   1.0000
     1.0000   1.0000   1.0000   1.0000   1.0000   1.0000   1.0000   1.0000
     0.0017   0.0000   0.0000   0.0000   0.0000   0.0000   0.0000   0.0000

          k = 0.0000-0.1443 0.1709 (  2019 PWs)   bands (ev):

   -85.3327 -48.6356 -48.6266 -48.5789 -37.7558 -10.8709  -9.1671   2.7293
     3.4084   3.9705   5.8706   6.1948   6.6476   8.6492   8.8383   9.5820
    11.4232  11.9290  12.8150  16.1784  19.4972  22.8308  23.5254  24.0520

     occupation numbers 
     1.0000   1.0000   1.0000   1.0000   1.0000   1.0000   1.0000   1.0000
     1.0000   1.0000   1.0000   1.0000   1.0000   1.0000   1.0000   1.0000
     0.0001   0.0000   0.0000   0.0000   0.0000   0.0000   0.0000   0.0000

          k = 0.0000-0.2887 0.1709 (  2008 PWs)   bands (ev):

   -85.3300 -48.6641 -48.6332 -48.5745 -37.7455 -10.3685  -9.1265   2.8168
     3.3182   4.1945   4.4440   6.0032   6.3996   8.6923   9.1984   9.4982
    10.9225  11.8021  13.0696  17.5486  19.6427  21.7070  22.8099  23.0516

     occupation numbers 
     1.0000   1.0000   1.0000   1.0000   1.0000   1.0000   1.0000   1.0000
     1.0000   1.0000   1.0000   1.0000   1.0000   1.0000   1.0000   1.0000
     0.1696   0.0000   0.0000   0.0000   0.0000   0.0000   0.0000   0.0000

          k = 0.0000-0.4330 0.1709 (  1996 PWs)   bands (ev):

   -85.3272 -48.6926 -48.6399 -48.5700 -37.7352  -9.7723  -9.1241   2.2329
     3.2214   4.3524   4.4273   5.6697   5.8751   8.5814   9.1811   9.3663
    11.2222  11.8340  13.2333  17.6256  19.2094  20.5994  21.9357  23.4220

     occupation numbers 
     1.0000   1.0000   1.0000   1.0000   1.0000   1.0000   1.0000   1.0000
     1.0000   1.0000   1.0000   1.0000   1.0000   1.0000   1.0000   1.0000
     0.0037   0.0000   0.0000   0.0000   0.0000   0.0000   0.0000   0.0000

          k =-0.1250-0.3608 0.1709 (  2005 PWs)   bands (ev):

   -85.3280 -48.6800 -48.6423 -48.5713 -37.7382  -9.9737  -9.1059   2.6633
     3.2694   4.1447   4.3498   5.3533   6.2919   8.8479   9.2075   9.3698
    11.1196  11.4280  13.3908  18.0165  19.0810  20.5715  22.1425  23.6807

     occupation numbers 
     1.0000   1.0000   1.0000   1.0000   1.0000   1.0000   1.0000   1.0000
     1.0000   1.0000   1.0000   1.0000   1.0000   1.0000   1.0000   1.0000
     0.0177   0.0001   0.0000   0.0000   0.0000   0.0000   0.0000   0.0000

          k =-0.1250-0.5052 0.1709 (  1996 PWs)   bands (ev):

   -85.3261 -48.6980 -48.6492 -48.5681 -37.7309  -9.4996  -9.1297   2.1000
     3.1428   4.3083   4.6750   5.1710   5.6946   8.6540   9.1555   9.3358
    11.4307  11.5721  13.5768  16.8146  19.4385  20.1199  21.6823  23.5505

     occupation numbers 
     1.0000   1.0000   1.0000   1.0000   1.0000   1.0000   1.0000   1.0000
     1.0000   1.0000   1.0000   1.0000   1.0000   1.0000   1.0000   1.0000
     0.0001   0.0000   0.0000   0.0000   0.0000   0.0000   0.0000   0.0000

     the Fermi energy is    10.8096 ev

!    total energy              =    -474.94965451 Ry
     total all-electron energy =     -3102.821792 Ry
     estimated scf accuracy    <       0.00000006 Ry
     smearing contrib. (-TS)   =      -0.00205785 Ry
     internal energy E=F+TS    =    -474.94759666 Ry

     The total energy is F=E-TS. E is the sum of the following terms:
     one-electron contribution =    -337.71943133 Ry
     hartree contribution      =     184.48618128 Ry
     xc contribution           =     -49.57472054 Ry
     ewald contribution        =    -165.46730675 Ry
     one-center paw contrib.   =    -106.67231933 Ry
      -> PAW hartree energy AE =     284.32178524 Ry
      -> PAW hartree energy PS =    -282.94395759 Ry
      -> PAW xc energy AE      =    -154.70591087 Ry
      -> PAW xc energy PS      =      46.65576389 Ry
      -> total E_H with PAW    =     185.86400893 Ry
      -> total E_XC with PAW   =    -157.62486751 Ry

     total magnetization       =     0.05 Bohr mag/cell
     absolute magnetization    =     0.06 Bohr mag/cell

     convergence has been achieved in  37 iterations

     Forces acting on atoms (cartesian axes, Ry/au):

     atom    1 type  1   force =    -0.00000000   -0.00000000    0.02010808
     atom    2 type  2   force =    -0.00000000   -0.00000000    0.08617350
     atom    3 type  2   force =    -0.00000000   -0.00000000   -0.10653038
     atom    4 type  3   force =     0.00000000    0.00000000    0.00024880
     The non-local contrib.  to forces
     atom    1 type  1   force =     0.00000000    0.00000000   -0.03854484
     atom    2 type  2   force =    -0.00000000   -0.00000000   -0.51846942
     atom    3 type  2   force =     0.00000000    0.00000000    0.36270910
     atom    4 type  3   force =     0.00000000    0.00000000   -0.01674593
     The ionic contribution  to forces
     atom    1 type  1   force =    -0.00000000   -0.00000000    1.52728827
     atom    2 type  2   force =     0.00000000   -0.00000000   26.30990029
     atom    3 type  2   force =    -0.00000000    0.00000000  -25.50433824
     atom    4 type  3   force =     0.00000000   -0.00000000   -2.33285032
     The local contribution  to forces
     atom    1 type  1   force =    -0.00000000   -0.00000000   -1.46871702
     atom    2 type  2   force =     0.00000001   -0.00000001  -25.70918695
     atom    3 type  2   force =    -0.00000001    0.00000001   25.03764673
     atom    4 type  3   force =    -0.00000000   -0.00000000    2.34990086
     The core correction contribution to forces
     atom    1 type  1   force =    -0.00000000    0.00000000   -0.00002977
     atom    2 type  2   force =    -0.00000000    0.00000000    0.00365665
     atom    3 type  2   force =     0.00000000   -0.00000000   -0.00229911
     atom    4 type  3   force =     0.00000000    0.00000000    0.00000000
     The Hubbard contrib.    to forces
     atom    1 type  1   force =     0.00000000    0.00000000    0.00000000
     atom    2 type  2   force =     0.00000000    0.00000000    0.00000000
     atom    3 type  2   force =     0.00000000    0.00000000    0.00000000
     atom    4 type  3   force =     0.00000000    0.00000000    0.00000000
     The SCF correction term to forces
     atom    1 type  1   force =    -0.00000000    0.00000000    0.00011740
     atom    2 type  2   force =     0.00000000   -0.00000000    0.00027890
     atom    3 type  2   force =    -0.00000000    0.00000000   -0.00024289
     atom    4 type  3   force =     0.00000000   -0.00000000   -0.00004984

     Total force =     0.138488     Total SCF correction =     0.000391

     Writing all to output data dir ./out/pw.save/ :
     XML data file, charge density, pseudopotentials, collected wavefunctions
 
     init_run     :      9.85s CPU      2.38s WALL (       1 calls)
     electrons    :    169.35s CPU     43.61s WALL (       1 calls)
     forces       :      0.54s CPU      0.53s WALL (       1 calls)

     Called by init_run:
     wfcinit      :      0.24s CPU      0.32s WALL (       1 calls)
     wfcinit:atom :      0.04s CPU      0.04s WALL (      50 calls)
     wfcinit:wfcr :      0.15s CPU      0.21s WALL (      50 calls)
     potinit      :      9.13s CPU      1.55s WALL (       1 calls)
     hinit0       :      0.41s CPU      0.42s WALL (       1 calls)

     Called by electrons:
     c_bands      :     18.58s CPU     18.66s WALL (      37 calls)
     sum_band     :      3.96s CPU      3.97s WALL (      37 calls)
     v_of_rho     :      0.54s CPU      0.23s WALL (      38 calls)
     v_h          :      0.39s CPU      0.05s WALL (      38 calls)
     v_xc         :      0.16s CPU      0.19s WALL (      39 calls)
     newd         :      0.87s CPU      0.62s WALL (      38 calls)
                                        0.62s GPU  (      38 calls)
     PAW_pot      :    147.86s CPU     19.60s WALL (      38 calls)
     mix_rho      :      0.99s CPU      0.99s WALL (      37 calls)

     Called by c_bands:
     init_us_2    :      1.52s CPU      1.51s WALL (    3800 calls)
     cegterg      :     16.06s CPU     16.14s WALL (    1850 calls)

     Called by sum_band:
     sum_band:wei :      0.04s CPU      0.04s WALL (      37 calls)
                                        0.04s GPU  (      37 calls)
     sum_band:loo :      2.52s CPU      2.52s WALL (      37 calls)
                                        2.52s GPU  (      37 calls)
     sum_band:buf :      0.20s CPU      0.23s WALL (    1850 calls)
                                        0.21s GPU  (    1850 calls)
     sum_band:ini :      0.73s CPU      0.75s WALL (    1850 calls)
                                        0.74s GPU  (    1850 calls)
     sum_band:cal :      0.06s CPU      0.25s WALL (    1850 calls)
                                        0.23s GPU  (    1850 calls)
     sum_band:bec :      0.40s CPU      0.43s WALL (    1850 calls)
                                        0.41s GPU  (    1850 calls)
     addusdens    :      1.22s CPU      1.23s WALL (      37 calls)
                                        1.23s GPU  (      37 calls)
     addusd:skk   :      0.01s CPU      0.01s WALL (     111 calls)
                                        0.01s GPU  (     111 calls)

     Called by *egterg:
     cdiaghg      :      5.17s CPU      5.38s WALL (    6725 calls)
                                        5.30s GPU  (    6725 calls)
     cegterg:over :      0.82s CPU      0.85s WALL (    4875 calls)
     cegterg:upda :      1.02s CPU      1.03s WALL (    4875 calls)
     cegterg:last :      0.19s CPU      0.19s WALL (    3389 calls)
     h_psi        :      6.16s CPU      6.24s WALL (    6775 calls)
                                        6.16s GPU  (    6775 calls)
     s_psi        :      1.06s CPU      1.10s WALL (    6775 calls)
     g_psi        :      0.02s CPU      0.11s WALL (    4875 calls)
                                        0.05s GPU  (    4875 calls)

     Called by h_psi:
     h_psi:calbec :      0.15s CPU      0.65s WALL (    6775 calls)
                                        0.56s GPU  (    6775 calls)
     vloc_psi     :      4.03s CPU      4.00s WALL (    6775 calls)
                                        3.92s GPU  (    6775 calls)
     add_vuspsi   :      0.95s CPU      1.11s WALL (    6775 calls)
                                        1.03s GPU  (    6775 calls)

     General routines
     calbec       :      0.17s CPU      0.20s WALL (    8825 calls)
     fft          :      3.24s CPU      0.64s WALL (     963 calls)
                                        0.04s GPU  (     887 calls)
     ffts         :      2.10s CPU      0.39s WALL (    1186 calls)
                                        0.03s GPU  (    1110 calls)
     fftw         :      0.43s CPU      1.31s WALL (   24840 calls)
                                        1.03s GPU  (   24840 calls)
     interpolate  :      5.46s CPU      0.97s WALL (      76 calls)
 
     Parallel routines

     PAW routines
     PAW_pot      :    147.86s CPU     19.60s WALL (      38 calls)
     PAW_symme    :      0.04s CPU      0.01s WALL (      75 calls)
 
     PWSCF        :   3m 0.52s CPU     47.23s WALL

 
   This run was terminated on:   5:42: 0  12Jul2026            

=------------------------------------------------------------------------------=
   JOB DONE.
=------------------------------------------------------------------------------=
Warning: ieee_divide_by_zero is signaling
Warning: ieee_inexact is signaling
FORTRAN STOP
