
     Program PWSCF v.7.3.1 starts on 12Jul2026 at  3:18:57 

     This program is part of the open-source Quantum ESPRESSO suite
     for quantum simulation of materials; please cite
         "P. Giannozzi et al., J. Phys.:Condens. Matter 21 395502 (2009);
         "P. Giannozzi et al., J. Phys.:Condens. Matter 29 465901 (2017);
         "P. Giannozzi et al., J. Chem. Phys. 152 154105 (2020);
          URL http://www.quantum-espresso.org", 
     in publications or presentations arising from this work. More details at
     http://www.quantum-espresso.org/quote

     Parallel version (MPI & OpenMP), running on      14 processor cores
     Number of MPI processes:                 1
     Threads/MPI process:                    14

     MPI processes distributed on     1 nodes
     848086 MiB available memory on the printing compute node when the environment starts
 
     Reading input from pw.in

     Current dimensions of program PWSCF are:
     Max number of different atomic species (ntypx) = 10
     Max number of k-points (npk) =  40000
     Max angular momentum in pseudopotentials (lmaxx) =  4
     file Co.pbe-spn-kjpaw_psl.0.3.1.UPF: wavefunction(s)  3P 3D renormalized
     file O.pbe-n-kjpaw_psl.1.0.0.UPF: wavefunction(s)  2S 2P renormalized
 
     Subspace diagonalization in iterative solution of the eigenvalue problem:
     a serial algorithm will be used

 
     G-vector sticks info
     --------------------
     sticks:   dense  smooth     PW     G-vecs:    dense   smooth      PW
     Sum         931     475    151                45403    15993    2651
 
     Using Slab Decomposition
 


     bravais-lattice index     =            4
     lattice parameter (alat)  =       5.3290  a.u.
     unit-cell volume          =     255.6161 (a.u.)^3
     number of atoms/cell      =            4
     number of atomic types    =            3
     number of electrons       =        32.00
     number of Kohn-Sham states=           24
     kinetic-energy cutoff     =      60.0000  Ry
     charge density cutoff     =     480.0000  Ry
     scf convergence threshold =      1.0E-07
     mixing beta               =       0.3000
     number of iterations used =            8  local-TF  mixing
     Exchange-correlation= SLA  PW   PBX  PBC
                           (   1   4   3   4   0   0   0)

     GPU acceleration is ACTIVE.  1 visible GPUs per MPI rank
     GPU-aware MPI enabled


     GPU used by master process:

        Device Number: 0
        Device name: NVIDIA A100-SXM4-80GB
        Compute capability : 80
        Ratio of single to double precision performance  : 2
        Memory Clock Rate (KHz): 1593000
        Memory Bus Width (bits): 5120
        Peak Memory Bandwidth (GB/s): ******

     celldm(1)=   5.329028  celldm(2)=   0.000000  celldm(3)=   1.950355
     celldm(4)=   0.000000  celldm(5)=   0.000000  celldm(6)=   0.000000

     crystal axes: (cart. coord. in units of alat)
               a(1) = (   1.000000   0.000000   0.000000 )  
               a(2) = (  -0.500000   0.866025   0.000000 )  
               a(3) = (   0.000000   0.000000   1.950355 )  

     reciprocal axes: (cart. coord. in units 2 pi/alat)
               b(1) = (  1.000000  0.577350 -0.000000 )  
               b(2) = (  0.000000  1.154701  0.000000 )  
               b(3) = (  0.000000 -0.000000  0.512727 )  


     PseudoPot. # 1 for Co read from file:
     ../../pseudo/Co.pbe-spn-kjpaw_psl.0.3.1.UPF
     MD5 check sum: 3c0a43779828c046024e4f3be63f8e67
     Pseudo is Projector augmented-wave + core cor, Zval = 17.0
     Generated using &quot;atomic&quot; code by A. Dal Corso  v.6.2.2
     Shape of augmentation charge: PSQ
     Using radial grid of 1193 points,  6 beta functions with: 
                l(1) =   0
                l(2) =   0
                l(3) =   1
                l(4) =   1
                l(5) =   2
                l(6) =   2
     Q(r) pseudized with 0 coefficients 


     PseudoPot. # 2 for O  read from file:
     ../../pseudo/O.pbe-n-kjpaw_psl.1.0.0.UPF
     MD5 check sum: e99d9cef9b487d1ca56f5b95ecd0fd7a
     Pseudo is Projector augmented-wave + core cor, Zval =  6.0
     Generated using &quot;atomic&quot; code by A. Dal Corso  v.6.3
     Shape of augmentation charge: PSQ
     Using radial grid of 1095 points,  4 beta functions with: 
                l(1) =   0
                l(2) =   0
                l(3) =   1
                l(4) =   1
     Q(r) pseudized with 0 coefficients 


     PseudoPot. # 3 for Li read from file:
     ../../pseudo/Li.pbe-s-kjpaw_psl.1.0.0.UPF
     MD5 check sum: 3974953fb0fea6c4f83fb01d64ffc134
     Pseudo is Projector augmented-wave, Zval =  3.0
     Generated using &quot;atomic&quot; code by A. Dal Corso  v.6.3
     Shape of augmentation charge: PSQ
     Using radial grid of 1017 points,  4 beta functions with: 
                l(1) =   0
                l(2) =   0
                l(3) =   1
                l(4) =   1
     Q(r) pseudized with 0 coefficients 


     atomic species   valence    mass     pseudopotential
     Co               17.00    58.93300     Co( 1.00)
     O                 6.00    15.99900     O ( 1.00)
     Li                3.00     6.94100     Li( 1.00)

     Starting magnetic structure 
     atomic species   magnetization
     Co              0.300
     O               0.000
     Li              0.000

      6 Sym. Ops. (no inversion) found


                                    s                        frac. trans.

      isym =  1     identity                                     

 cryst.   s( 1) = (     1          0          0      )
                  (     0          1          0      )
                  (     0          0          1      )

 cart.    s( 1) = (  1.0000000  0.0000000  0.0000000 )
                  (  0.0000000  1.0000000  0.0000000 )
                  (  0.0000000  0.0000000  1.0000000 )


      isym =  2     120 deg rotation - cryst. axis [0,0,1]       

 cryst.   s( 2) = (     0          1          0      )
                  (    -1         -1          0      )
                  (     0          0          1      )

 cart.    s( 2) = ( -0.5000000 -0.8660254  0.0000000 )
                  (  0.8660254 -0.5000000  0.0000000 )
                  (  0.0000000  0.0000000  1.0000000 )


      isym =  3     120 deg rotation - cryst. axis [0,0,-1]      

 cryst.   s( 3) = (    -1         -1          0      )
                  (     1          0          0      )
                  (     0          0          1      )

 cart.    s( 3) = ( -0.5000000  0.8660254  0.0000000 )
                  ( -0.8660254 -0.5000000  0.0000000 )
                  (  0.0000000  0.0000000  1.0000000 )


      isym =  4     inv. 180 deg rotation - cart. axis [1,0,0]   

 cryst.   s( 4) = (    -1          0          0      )
                  (     1          1          0      )
                  (     0          0          1      )

 cart.    s( 4) = ( -1.0000000  0.0000000  0.0000000 )
                  (  0.0000000  1.0000000  0.0000000 )
                  (  0.0000000  0.0000000  1.0000000 )


      isym =  5     inv. 180 deg rotation - cryst. axis [0,1,0]  

 cryst.   s( 5) = (     1          1          0      )
                  (     0         -1          0      )
                  (     0          0          1      )

 cart.    s( 5) = (  0.5000000  0.8660254  0.0000000 )
                  (  0.8660254 -0.5000000  0.0000000 )
                  (  0.0000000  0.0000000  1.0000000 )


      isym =  6     inv. 180 deg rotation - cryst. axis [1,1,0]  

 cryst.   s( 6) = (     0         -1          0      )
                  (    -1          0          0      )
                  (     0          0          1      )

 cart.    s( 6) = (  0.5000000 -0.8660254  0.0000000 )
                  ( -0.8660254 -0.5000000  0.0000000 )
                  (  0.0000000  0.0000000  1.0000000 )


     point group C_3v (3m)  
     there are  3 classes
     the character table:

       E     2C3   3s_v 
A_1    1.00  1.00  1.00
A_2    1.00  1.00 -1.00
E      2.00 -1.00  0.00

     the symmetry operations in each class and the name of the first element:

     E        1
          identity                                               
     2C3      2    3
          120 deg rotation - cryst. axis [0,0,1]                 
     3s_v     4    5    6
          inv. 180 deg rotation - cart. axis [1,0,0]             

   Cartesian axes

     site n.     atom                  positions (alat units)
         1        Co     tau(   1) = (   0.0000000   0.0000000   0.0000000  )
         2        O      tau(   2) = (  -0.0000000   0.5773503   0.3404255  )
         3        O      tau(   3) = (   0.5000000   0.2886751   1.6099291  )
         4        Li     tau(   4) = (   0.0000000   0.0000000   1.0283688  )

   Crystallographic axes

     site n.     atom                  positions (cryst. coord.)
         1        Co     tau(   1) = (  0.0000000  0.0000000  0.0000000  )
         2        O      tau(   2) = (  0.3333333  0.6666667  0.1745455  )
         3        O      tau(   3) = (  0.6666667  0.3333333  0.8254545  )
         4        Li     tau(   4) = (  0.0000000  0.0000000  0.5272727  )

     number of k points=    25  Marzari-Vanderbilt smearing, width (Ry)=  0.0200
                       cart. coord. in units 2pi/alat
        k(    1) = (   0.0000000   0.0000000   0.0000000), wk =   0.0052083
        k(    2) = (   0.0000000   0.0000000   0.1709091), wk =   0.0104167
        k(    3) = (   0.0000000   0.1443376   0.0000000), wk =   0.0312500
        k(    4) = (   0.0000000   0.1443376   0.1709091), wk =   0.0312500
        k(    5) = (   0.0000000   0.2886751   0.0000000), wk =   0.0312500
        k(    6) = (   0.0000000   0.2886751   0.1709091), wk =   0.0312500
        k(    7) = (   0.0000000   0.4330127   0.0000000), wk =   0.0312500
        k(    8) = (   0.0000000   0.4330127   0.1709091), wk =   0.0312500
        k(    9) = (   0.0000000  -0.5773503   0.0000000), wk =   0.0156250
        k(   10) = (   0.0000000  -0.5773503   0.1709091), wk =   0.0312500
        k(   11) = (   0.1250000   0.2165064   0.0000000), wk =   0.0312500
        k(   12) = (   0.1250000   0.2165064   0.1709091), wk =   0.0625000
        k(   13) = (   0.1250000   0.3608439   0.0000000), wk =   0.0625000
        k(   14) = (   0.1250000   0.3608439   0.1709091), wk =   0.0625000
        k(   15) = (   0.1250000   0.5051815   0.0000000), wk =   0.0625000
        k(   16) = (   0.1250000   0.5051815   0.1709091), wk =   0.0625000
        k(   17) = (   0.2500000   0.4330127   0.0000000), wk =   0.0312500
        k(   18) = (   0.2500000   0.4330127   0.1709091), wk =   0.0625000
        k(   19) = (   0.2500000   0.5773503   0.0000000), wk =   0.0312500
        k(   20) = (   0.2500000   0.5773503   0.1709091), wk =   0.0625000
        k(   21) = (   0.0000000  -0.1443376   0.1709091), wk =   0.0312500
        k(   22) = (   0.0000000  -0.2886751   0.1709091), wk =   0.0312500
        k(   23) = (   0.0000000  -0.4330127   0.1709091), wk =   0.0312500
        k(   24) = (  -0.1250000  -0.3608439   0.1709091), wk =   0.0625000
        k(   25) = (  -0.1250000  -0.5051815   0.1709091), wk =   0.0625000

                       cryst. coord.
        k(    1) = (   0.0000000   0.0000000   0.0000000), wk =   0.0052083
        k(    2) = (   0.0000000   0.0000000   0.3333333), wk =   0.0104167
        k(    3) = (   0.0000000   0.1250000   0.0000000), wk =   0.0312500
        k(    4) = (   0.0000000   0.1250000   0.3333333), wk =   0.0312500
        k(    5) = (   0.0000000   0.2500000   0.0000000), wk =   0.0312500
        k(    6) = (   0.0000000   0.2500000   0.3333333), wk =   0.0312500
        k(    7) = (   0.0000000   0.3750000   0.0000000), wk =   0.0312500
        k(    8) = (   0.0000000   0.3750000   0.3333333), wk =   0.0312500
        k(    9) = (   0.0000000  -0.5000000   0.0000000), wk =   0.0156250
        k(   10) = (   0.0000000  -0.5000000   0.3333333), wk =   0.0312500
        k(   11) = (   0.1250000   0.1250000   0.0000000), wk =   0.0312500
        k(   12) = (   0.1250000   0.1250000   0.3333333), wk =   0.0625000
        k(   13) = (   0.1250000   0.2500000   0.0000000), wk =   0.0625000
        k(   14) = (   0.1250000   0.2500000   0.3333333), wk =   0.0625000
        k(   15) = (   0.1250000   0.3750000   0.0000000), wk =   0.0625000
        k(   16) = (   0.1250000   0.3750000   0.3333333), wk =   0.0625000
        k(   17) = (   0.2500000   0.2500000   0.0000000), wk =   0.0312500
        k(   18) = (   0.2500000   0.2500000   0.3333333), wk =   0.0625000
        k(   19) = (   0.2500000   0.3750000   0.0000000), wk =   0.0312500
        k(   20) = (   0.2500000   0.3750000   0.3333333), wk =   0.0625000
        k(   21) = (   0.0000000  -0.1250000   0.3333333), wk =   0.0312500
        k(   22) = (   0.0000000  -0.2500000   0.3333333), wk =   0.0312500
        k(   23) = (   0.0000000  -0.3750000   0.3333333), wk =   0.0312500
        k(   24) = (  -0.1250000  -0.2500000   0.3333333), wk =   0.0625000
        k(   25) = (  -0.1250000  -0.3750000   0.3333333), wk =   0.0625000

     Dense  grid:    45403 G-vectors     FFT dimensions: (  40,  40,  75)

     Smooth grid:    15993 G-vectors     FFT dimensions: (  27,  27,  54)

     Dynamical RAM for                 wfc:       0.73 MB

     Dynamical RAM for     wfc (w. buffer):      37.47 MB

     Dynamical RAM for           str. fact:       2.08 MB

     Dynamical RAM for           local pot:       0.00 MB

     Dynamical RAM for          nlocal pot:       1.29 MB

     Dynamical RAM for                qrad:       5.27 MB

     Dynamical RAM for          rho,v,vnew:       9.65 MB

     Dynamical RAM for               rhoin:       3.22 MB

     Dynamical RAM for            rho*nmix:      22.17 MB

     Dynamical RAM for           G-vectors:       2.72 MB

     Dynamical RAM for          h,s,v(r/c):       0.11 MB

     Dynamical RAM for          <psi|beta>:       0.02 MB

     Dynamical RAM for                 psi:       1.47 MB

     Dynamical RAM for                hpsi:       1.47 MB

     Dynamical RAM for                spsi:       1.47 MB

     Dynamical RAM for      wfcinit/wfcrot:       1.48 MB

     Dynamical RAM for           addusdens:     130.94 MB

     Dynamical RAM for          addusforce:     132.34 MB

     Estimated static dynamical RAM per process >      69.95 MB

     Estimated max dynamical RAM per process >     224.46 MB

     Check: negative core charge=   -0.000009
     Generating pointlists ...
     new r_m :   0.2765 (alat units)  1.4733 (a.u.) for type    1
     new r_m :   0.2765 (alat units)  1.4733 (a.u.) for type    2
     new r_m :   0.3380 (alat units)  1.8014 (a.u.) for type    3

     Initial potential from superposition of free atoms

     starting charge      31.9951, renormalised to      32.0000
     Starting wfcs are   23 randomized atomic wfcs +    1 random wfcs
     Checking if some PAW data can be deallocated... 

     total cpu time spent up to now is        2.9 secs

     Self-consistent Calculation
[tb_dev] Currently allocated     6.36E-01 Mbytes, locked:    0 /   6
[tb_pin] Currently allocated     0.00E+00 Mbytes, locked:    0 /   0

     iteration #  1     ecut=    60.00 Ry     beta= 0.30
     Davidson diagonalization with overlap

---- Real-time Memory Report at c_bands before calling an iterative solver
           646 MiB given to the printing process from OS
             0 MiB allocation reported by mallinfo(arena+hblkhd)
        848252 MiB available memory on the node where the printing process lives
     GPU memory used/free/total (MiB): 916 / 80234 / 81151
------------------
     ethr =  1.00E-02,  avg # of iterations =  7.9

     total cpu time spent up to now is        4.8 secs

     total energy              =    -474.95251513 Ry
     estimated scf accuracy    <       1.24165142 Ry

     total magnetization       =     4.00 Bohr mag/cell
     absolute magnetization    =     4.00 Bohr mag/cell
[tb_dev] Currently allocated     3.05E-05 Mbytes, locked:    0 /   2
[tb_pin] Currently allocated     0.00E+00 Mbytes, locked:    0 /   0

     iteration #  2     ecut=    60.00 Ry     beta= 0.30
     Davidson diagonalization with overlap

---- Real-time Memory Report at c_bands before calling an iterative solver
           688 MiB given to the printing process from OS
             0 MiB allocation reported by mallinfo(arena+hblkhd)
        848419 MiB available memory on the node where the printing process lives
     GPU memory used/free/total (MiB): 928 / 80222 / 81151
------------------
     ethr =  3.88E-03,  avg # of iterations =  1.9

     total cpu time spent up to now is        5.9 secs

     total energy              =    -474.92812415 Ry
     estimated scf accuracy    <       0.38175430 Ry

     total magnetization       =     3.94 Bohr mag/cell
     absolute magnetization    =     3.94 Bohr mag/cell
[tb_dev] Currently allocated     3.05E-05 Mbytes, locked:    0 /   2
[tb_pin] Currently allocated     0.00E+00 Mbytes, locked:    0 /   0

     iteration #  3     ecut=    60.00 Ry     beta= 0.30
     Davidson diagonalization with overlap

---- Real-time Memory Report at c_bands before calling an iterative solver
           692 MiB given to the printing process from OS
             0 MiB allocation reported by mallinfo(arena+hblkhd)
        848198 MiB available memory on the node where the printing process lives
     GPU memory used/free/total (MiB): 928 / 80222 / 81151
------------------
     ethr =  1.19E-03,  avg # of iterations =  2.4

     total cpu time spent up to now is        7.0 secs

     total energy              =    -475.10506844 Ry
     estimated scf accuracy    <       0.62627814 Ry

     total magnetization       =     1.76 Bohr mag/cell
     absolute magnetization    =     1.83 Bohr mag/cell
[tb_dev] Currently allocated     3.05E-05 Mbytes, locked:    0 /   2
[tb_pin] Currently allocated     0.00E+00 Mbytes, locked:    0 /   0

     iteration #  4     ecut=    60.00 Ry     beta= 0.30
     Davidson diagonalization with overlap

---- Real-time Memory Report at c_bands before calling an iterative solver
           693 MiB given to the printing process from OS
             0 MiB allocation reported by mallinfo(arena+hblkhd)
        847940 MiB available memory on the node where the printing process lives
     GPU memory used/free/total (MiB): 928 / 80222 / 81151
------------------
     ethr =  1.19E-03,  avg # of iterations =  1.2

     total cpu time spent up to now is        8.0 secs

     total energy              =    -475.14221105 Ry
     estimated scf accuracy    <       0.93021277 Ry

     total magnetization       =     1.54 Bohr mag/cell
     absolute magnetization    =     1.65 Bohr mag/cell
[tb_dev] Currently allocated     3.05E-05 Mbytes, locked:    0 /   2
[tb_pin] Currently allocated     0.00E+00 Mbytes, locked:    0 /   0

     iteration #  5     ecut=    60.00 Ry     beta= 0.30
     Davidson diagonalization with overlap

---- Real-time Memory Report at c_bands before calling an iterative solver
           693 MiB given to the printing process from OS
             0 MiB allocation reported by mallinfo(arena+hblkhd)
        847910 MiB available memory on the node where the printing process lives
     GPU memory used/free/total (MiB): 928 / 80222 / 81151
------------------
     ethr =  1.19E-03,  avg # of iterations =  1.0

     total cpu time spent up to now is        9.1 secs

     total energy              =    -475.12401202 Ry
     estimated scf accuracy    <       0.93619726 Ry

     total magnetization       =     1.01 Bohr mag/cell
     absolute magnetization    =     1.28 Bohr mag/cell
[tb_dev] Currently allocated     3.05E-05 Mbytes, locked:    0 /   2
[tb_pin] Currently allocated     0.00E+00 Mbytes, locked:    0 /   0

     iteration #  6     ecut=    60.00 Ry     beta= 0.30
     Davidson diagonalization with overlap

---- Real-time Memory Report at c_bands before calling an iterative solver
           695 MiB given to the printing process from OS
             0 MiB allocation reported by mallinfo(arena+hblkhd)
        847742 MiB available memory on the node where the printing process lives
     GPU memory used/free/total (MiB): 928 / 80222 / 81151
------------------
     ethr =  1.19E-03,  avg # of iterations =  1.0

     total cpu time spent up to now is       10.1 secs

     total energy              =    -475.14442771 Ry
     estimated scf accuracy    <       0.41015877 Ry

     total magnetization       =     0.38 Bohr mag/cell
     absolute magnetization    =     0.89 Bohr mag/cell
[tb_dev] Currently allocated     3.05E-05 Mbytes, locked:    0 /   2
[tb_pin] Currently allocated     0.00E+00 Mbytes, locked:    0 /   0

     iteration #  7     ecut=    60.00 Ry     beta= 0.30
     Davidson diagonalization with overlap

---- Real-time Memory Report at c_bands before calling an iterative solver
           696 MiB given to the printing process from OS
             0 MiB allocation reported by mallinfo(arena+hblkhd)
        847691 MiB available memory on the node where the printing process lives
     GPU memory used/free/total (MiB): 928 / 80222 / 81151
------------------
     ethr =  1.19E-03,  avg # of iterations =  1.0

     total cpu time spent up to now is       11.1 secs

     total energy              =    -475.17153714 Ry
     estimated scf accuracy    <       0.46663957 Ry

     total magnetization       =     0.53 Bohr mag/cell
     absolute magnetization    =     0.98 Bohr mag/cell
[tb_dev] Currently allocated     3.05E-05 Mbytes, locked:    0 /   2
[tb_pin] Currently allocated     0.00E+00 Mbytes, locked:    0 /   0

     iteration #  8     ecut=    60.00 Ry     beta= 0.30
     Davidson diagonalization with overlap

---- Real-time Memory Report at c_bands before calling an iterative solver
           697 MiB given to the printing process from OS
             0 MiB allocation reported by mallinfo(arena+hblkhd)
        847671 MiB available memory on the node where the printing process lives
     GPU memory used/free/total (MiB): 928 / 80222 / 81151
------------------
     ethr =  1.19E-03,  avg # of iterations =  1.0

     total cpu time spent up to now is       12.1 secs

     total energy              =    -475.10610738 Ry
     estimated scf accuracy    <       0.45975560 Ry

     total magnetization       =     0.14 Bohr mag/cell
     absolute magnetization    =     0.74 Bohr mag/cell
[tb_dev] Currently allocated     3.05E-05 Mbytes, locked:    0 /   2
[tb_pin] Currently allocated     0.00E+00 Mbytes, locked:    0 /   0

     iteration #  9     ecut=    60.00 Ry     beta= 0.30
     Davidson diagonalization with overlap

---- Real-time Memory Report at c_bands before calling an iterative solver
           697 MiB given to the printing process from OS
             0 MiB allocation reported by mallinfo(arena+hblkhd)
        847675 MiB available memory on the node where the printing process lives
     GPU memory used/free/total (MiB): 928 / 80222 / 81151
------------------
     ethr =  1.19E-03,  avg # of iterations =  1.3
     Minimization algorithm failed to find Fermi energy: reverting to bisection
     Possible cause: smearing is larger than the electronic band-gap.

     total cpu time spent up to now is       13.2 secs

     total energy              =    -475.17330637 Ry
     estimated scf accuracy    <       0.01369642 Ry

     total magnetization       =    -0.08 Bohr mag/cell
     absolute magnetization    =     0.12 Bohr mag/cell
[tb_dev] Currently allocated     3.05E-05 Mbytes, locked:    0 /   2
[tb_pin] Currently allocated     0.00E+00 Mbytes, locked:    0 /   0

     iteration # 10     ecut=    60.00 Ry     beta= 0.30
     Davidson diagonalization with overlap

---- Real-time Memory Report at c_bands before calling an iterative solver
           698 MiB given to the printing process from OS
             0 MiB allocation reported by mallinfo(arena+hblkhd)
        847672 MiB available memory on the node where the printing process lives
     GPU memory used/free/total (MiB): 928 / 80222 / 81151
------------------
     c_bands:  1 eigenvalues not converged
     ethr =  4.28E-05,  avg # of iterations =  6.4

     total cpu time spent up to now is       14.8 secs

     total energy              =    -475.17856099 Ry
     estimated scf accuracy    <       0.00343781 Ry

     total magnetization       =     0.00 Bohr mag/cell
     absolute magnetization    =     0.10 Bohr mag/cell
[tb_dev] Currently allocated     3.05E-05 Mbytes, locked:    0 /   2
[tb_pin] Currently allocated     0.00E+00 Mbytes, locked:    0 /   0

     iteration # 11     ecut=    60.00 Ry     beta= 0.30
     Davidson diagonalization with overlap

---- Real-time Memory Report at c_bands before calling an iterative solver
           699 MiB given to the printing process from OS
             0 MiB allocation reported by mallinfo(arena+hblkhd)
        847672 MiB available memory on the node where the printing process lives
     GPU memory used/free/total (MiB): 928 / 80222 / 81151
------------------
     ethr =  1.07E-05,  avg # of iterations =  3.5

     total cpu time spent up to now is       16.1 secs

     total energy              =    -475.17822451 Ry
     estimated scf accuracy    <       0.00301267 Ry

     total magnetization       =     0.00 Bohr mag/cell
     absolute magnetization    =     0.12 Bohr mag/cell
[tb_dev] Currently allocated     3.05E-05 Mbytes, locked:    0 /   2
[tb_pin] Currently allocated     0.00E+00 Mbytes, locked:    0 /   0

     iteration # 12     ecut=    60.00 Ry     beta= 0.30
     Davidson diagonalization with overlap

---- Real-time Memory Report at c_bands before calling an iterative solver
           699 MiB given to the printing process from OS
             0 MiB allocation reported by mallinfo(arena+hblkhd)
        847674 MiB available memory on the node where the printing process lives
     GPU memory used/free/total (MiB): 928 / 80222 / 81151
------------------
     ethr =  9.41E-06,  avg # of iterations =  1.9

     total cpu time spent up to now is       17.2 secs

     total energy              =    -475.17918165 Ry
     estimated scf accuracy    <       0.00109194 Ry

     total magnetization       =     0.00 Bohr mag/cell
     absolute magnetization    =     0.03 Bohr mag/cell
[tb_dev] Currently allocated     3.05E-05 Mbytes, locked:    0 /   2
[tb_pin] Currently allocated     0.00E+00 Mbytes, locked:    0 /   0

     iteration # 13     ecut=    60.00 Ry     beta= 0.30
     Davidson diagonalization with overlap

---- Real-time Memory Report at c_bands before calling an iterative solver
           699 MiB given to the printing process from OS
             0 MiB allocation reported by mallinfo(arena+hblkhd)
        847674 MiB available memory on the node where the printing process lives
     GPU memory used/free/total (MiB): 928 / 80222 / 81151
------------------
     ethr =  3.41E-06,  avg # of iterations =  3.3

     total cpu time spent up to now is       18.4 secs

     total energy              =    -475.17911594 Ry
     estimated scf accuracy    <       0.00041666 Ry

     total magnetization       =     0.00 Bohr mag/cell
     absolute magnetization    =     0.02 Bohr mag/cell
[tb_dev] Currently allocated     3.05E-05 Mbytes, locked:    0 /   2
[tb_pin] Currently allocated     0.00E+00 Mbytes, locked:    0 /   0

     iteration # 14     ecut=    60.00 Ry     beta= 0.30
     Davidson diagonalization with overlap

---- Real-time Memory Report at c_bands before calling an iterative solver
           699 MiB given to the printing process from OS
             0 MiB allocation reported by mallinfo(arena+hblkhd)
        847680 MiB available memory on the node where the printing process lives
     GPU memory used/free/total (MiB): 928 / 80222 / 81151
------------------
     ethr =  1.30E-06,  avg # of iterations =  2.0

     total cpu time spent up to now is       19.5 secs

     total energy              =    -475.17954302 Ry
     estimated scf accuracy    <       0.00010115 Ry

     total magnetization       =     0.00 Bohr mag/cell
     absolute magnetization    =     0.01 Bohr mag/cell
[tb_dev] Currently allocated     3.05E-05 Mbytes, locked:    0 /   2
[tb_pin] Currently allocated     0.00E+00 Mbytes, locked:    0 /   0

     iteration # 15     ecut=    60.00 Ry     beta= 0.30
     Davidson diagonalization with overlap

---- Real-time Memory Report at c_bands before calling an iterative solver
           699 MiB given to the printing process from OS
             0 MiB allocation reported by mallinfo(arena+hblkhd)
        847681 MiB available memory on the node where the printing process lives
     GPU memory used/free/total (MiB): 928 / 80222 / 81151
------------------
     ethr =  3.16E-07,  avg # of iterations =  3.8

     total cpu time spent up to now is       20.9 secs

     total energy              =    -475.17966301 Ry
     estimated scf accuracy    <       0.00005403 Ry

     total magnetization       =     0.00 Bohr mag/cell
     absolute magnetization    =     0.01 Bohr mag/cell
[tb_dev] Currently allocated     3.05E-05 Mbytes, locked:    0 /   2
[tb_pin] Currently allocated     0.00E+00 Mbytes, locked:    0 /   0

     iteration # 16     ecut=    60.00 Ry     beta= 0.30
     Davidson diagonalization with overlap

---- Real-time Memory Report at c_bands before calling an iterative solver
           699 MiB given to the printing process from OS
             0 MiB allocation reported by mallinfo(arena+hblkhd)
        847691 MiB available memory on the node where the printing process lives
     GPU memory used/free/total (MiB): 928 / 80222 / 81151
------------------
     ethr =  1.69E-07,  avg # of iterations =  3.2

     total cpu time spent up to now is       22.1 secs

     total energy              =    -475.17963133 Ry
     estimated scf accuracy    <       0.00000514 Ry

     total magnetization       =     0.00 Bohr mag/cell
     absolute magnetization    =     0.00 Bohr mag/cell
[tb_dev] Currently allocated     3.05E-05 Mbytes, locked:    0 /   2
[tb_pin] Currently allocated     0.00E+00 Mbytes, locked:    0 /   0

     iteration # 17     ecut=    60.00 Ry     beta= 0.30
     Davidson diagonalization with overlap

---- Real-time Memory Report at c_bands before calling an iterative solver
           699 MiB given to the printing process from OS
             0 MiB allocation reported by mallinfo(arena+hblkhd)
        847689 MiB available memory on the node where the printing process lives
     GPU memory used/free/total (MiB): 928 / 80222 / 81151
------------------
     ethr =  1.61E-08,  avg # of iterations =  6.7

     total cpu time spent up to now is       23.8 secs

     total energy              =    -475.17965663 Ry
     estimated scf accuracy    <       0.00000048 Ry

     total magnetization       =    -0.00 Bohr mag/cell
     absolute magnetization    =     0.00 Bohr mag/cell
[tb_dev] Currently allocated     3.05E-05 Mbytes, locked:    0 /   2
[tb_pin] Currently allocated     0.00E+00 Mbytes, locked:    0 /   0

     iteration # 18     ecut=    60.00 Ry     beta= 0.30
     Davidson diagonalization with overlap

---- Real-time Memory Report at c_bands before calling an iterative solver
           699 MiB given to the printing process from OS
             0 MiB allocation reported by mallinfo(arena+hblkhd)
        847689 MiB available memory on the node where the printing process lives
     GPU memory used/free/total (MiB): 928 / 80222 / 81151
------------------
     ethr =  1.50E-09,  avg # of iterations =  5.2

     total cpu time spent up to now is       25.3 secs

     total energy              =    -475.17965156 Ry
     estimated scf accuracy    <       0.00000014 Ry

     total magnetization       =    -0.00 Bohr mag/cell
     absolute magnetization    =     0.00 Bohr mag/cell
[tb_dev] Currently allocated     3.05E-05 Mbytes, locked:    0 /   2
[tb_pin] Currently allocated     0.00E+00 Mbytes, locked:    0 /   0

     iteration # 19     ecut=    60.00 Ry     beta= 0.30
     Davidson diagonalization with overlap

---- Real-time Memory Report at c_bands before calling an iterative solver
           699 MiB given to the printing process from OS
             0 MiB allocation reported by mallinfo(arena+hblkhd)
        847671 MiB available memory on the node where the printing process lives
     GPU memory used/free/total (MiB): 928 / 80222 / 81151
------------------
     ethr =  4.44E-10,  avg # of iterations =  4.2
 
     Magnetic moment per site  (integrated on atomic sphere of radius R)
     atom   1 (R=0.276)  charge= 14.0911  magn=  0.0001
     atom   2 (R=0.276)  charge=  5.2123  magn= -0.0001
     atom   3 (R=0.276)  charge=  5.2353  magn= -0.0001
     atom   4 (R=0.338)  charge=  2.1654  magn=  0.0000

     total cpu time spent up to now is       26.6 secs

     End of self-consistent calculation

 ------ SPIN UP ------------


          k = 0.0000 0.0000 0.0000 (  2029 PWs)   bands (ev):

   -85.8454 -49.1266 -49.1266 -49.0470 -37.6341 -11.1063  -9.1969   2.2317
     3.6950   3.6950   6.1468   7.0706   7.0706   8.0777   8.0777   9.0076
    11.6990  11.6990  12.0087  16.4740  19.2055  22.6745  24.8096  24.8096

     occupation numbers 
     1.0000   1.0000   1.0000   1.0000   1.0000   1.0000   1.0000   1.0000
     1.0000   1.0000   1.0000   1.0000   1.0000   1.0000   1.0000   1.0000
     0.0000   0.0000   0.0000   0.0000   0.0000   0.0000   0.0000   0.0000

          k = 0.0000 0.0000 0.1709 (  2024 PWs)   bands (ev):

   -85.8454 -49.1266 -49.1266 -49.0469 -37.6341 -11.0962  -9.2180   2.4947
     3.6963   3.6963   5.5066   7.0668   7.0668   8.0763   8.0763   9.2418
    11.7061  11.7061  12.7825  15.6688  19.0145  23.0243  24.9757  24.9758

     occupation numbers 
     1.0000   1.0000   1.0000   1.0000   1.0000   1.0000   1.0000   1.0000
     1.0000   1.0000   1.0000   1.0000   1.0000   1.0000   1.0000   1.0027
     0.0000   0.0000   0.0000   0.0000   0.0000   0.0000   0.0000   0.0000

          k = 0.0000 0.1443 0.0000 (  2019 PWs)   bands (ev):

   -85.8443 -49.1379 -49.1293 -49.0452 -37.6299 -10.9170  -9.1787   2.4572
     3.3444   3.7958   5.9851   6.5589   6.5766   8.3197   8.5005   9.0376
    11.1532  11.5968  12.4132  16.9793  19.6041  22.9943  23.6253  24.2443

     occupation numbers 
     1.0000   1.0000   1.0000   1.0000   1.0000   1.0000   1.0000   1.0000
     1.0000   1.0000   1.0000   1.0000   1.0000   1.0000   1.0000   1.0001
     0.0000   0.0000   0.0000   0.0000   0.0000   0.0000   0.0000   0.0000

          k = 0.0000 0.1443 0.1709 (  2019 PWs)   bands (ev):

   -85.8443 -49.1379 -49.1293 -49.0451 -37.6299 -10.9064  -9.1991   2.7011
     3.2936   3.7946   5.9292   6.1016   6.5623   8.2993   8.5013   9.2957
    11.0654  11.5915  13.1687  16.2173  19.6551  22.8840  23.7613  24.2345

     occupation numbers 
     1.0000   1.0000   1.0000   1.0000   1.0000   1.0000   1.0000   1.0000
     1.0000   1.0000   1.0000   1.0000   1.0000   1.0000   1.0000   1.0059
     0.0000   0.0000   0.0000   0.0000   0.0000   0.0000   0.0000   0.0000

          k = 0.0000 0.2887 0.0000 (  2021 PWs)   bands (ev):

   -85.8417 -49.1656 -49.1358 -49.0409 -37.6199 -10.4199  -9.1463   2.8156
     3.0914   4.0277   4.3563   5.9132   6.7651   8.3870   8.8430   9.0896
    10.5487  11.4793  13.0944  17.6493  20.3676  21.1720  23.0597  23.7561

     occupation numbers 
     1.0000   1.0000   1.0000   1.0000   1.0000   1.0000   1.0000   1.0000
     1.0000   1.0000   1.0000   1.0000   1.0000   1.0000   1.0000   1.0002
     0.0004   0.0000   0.0000   0.0000   0.0000   0.0000   0.0000   0.0000

          k = 0.0000 0.2887 0.1709 (  2008 PWs)   bands (ev):

   -85.8416 -49.1656 -49.1357 -49.0408 -37.6198 -10.4094  -9.1624   2.6848
     3.3074   4.0211   4.3859   5.9260   6.5919   8.3035   8.8490   9.2763
    10.2958  11.4557  13.6569  17.2757  20.3710  21.0955  23.0900  23.2866

     occupation numbers 
     1.0000   1.0000   1.0000   1.0000   1.0000   1.0000   1.0000   1.0000
     1.0000   1.0000   1.0000   1.0000   1.0000   1.0000   1.0000   1.0045
     0.0282   0.0000   0.0000   0.0000   0.0000   0.0000   0.0000   0.0000

          k = 0.0000 0.4330 0.0000 (  2014 PWs)   bands (ev):

   -85.8390 -49.1934 -49.1423 -49.0364 -37.6098  -9.8277  -9.1566   2.2759
     3.2445   4.1103   4.1974   5.5939   5.9719   8.2998   8.7822   9.0448
    10.8557  11.5346  13.6025  17.6549  19.0770  21.0500  22.1171  23.2662

     occupation numbers 
     1.0000   1.0000   1.0000   1.0000   1.0000   1.0000   1.0000   1.0000
     1.0000   1.0000   1.0000   1.0000   1.0000   1.0000   1.0000   1.0001
     0.0000   0.0000   0.0000   0.0000   0.0000   0.0000   0.0000   0.0000

          k = 0.0000 0.4330 0.1709 (  1996 PWs)   bands (ev):

   -85.8389 -49.1933 -49.1421 -49.0364 -37.6097  -9.8224  -9.1621   2.1534
     3.2137   4.1818   4.2415   5.6213   6.2130   8.1865   8.7851   9.0783
    10.5612  11.4983  13.8325  17.8483  18.6473  21.4479  22.2447  22.6994

     occupation numbers 
     1.0000   1.0000   1.0000   1.0000   1.0000   1.0000   1.0000   1.0000
     1.0000   1.0000   1.0000   1.0000   1.0000   1.0000   1.0000   1.0002
     0.0003   0.0000   0.0000   0.0000   0.0000   0.0000   0.0000   0.0000

          k = 0.0000-0.5774 0.0000 (  1982 PWs)   bands (ev):

   -85.8378 -49.2045 -49.1449 -49.0346 -37.6054  -9.4899  -9.2327   1.8419
     3.3002   4.2260   4.6052   5.2959   5.5531   8.1936   8.6793   8.9996
    11.1780  11.5941  13.7703  17.3755  18.5532  21.0106  21.7752  23.1144

     occupation numbers 
     1.0000   1.0000   1.0000   1.0000   1.0000   1.0000   1.0000   1.0000
     1.0000   1.0000   1.0000   1.0000   1.0000   1.0000   1.0000   1.0000
     0.0000   0.0000   0.0000   0.0000   0.0000   0.0000   0.0000   0.0000

          k = 0.0000-0.5774 0.1709 (  2004 PWs)   bands (ev):

   -85.8379 -49.2048 -49.1449 -49.0347 -37.6055  -9.4889  -9.2326   1.7515
     3.2629   4.2101   4.5285   5.5811   5.7144   8.1031   8.6789   8.9711
    11.0456  11.5585  13.7511  17.1658  19.3186  20.5908  21.9427  23.1445

     occupation numbers 
     1.0000   1.0000   1.0000   1.0000   1.0000   1.0000   1.0000   1.0000
     1.0000   1.0000   1.0000   1.0000   1.0000   1.0000   1.0000   1.0000
     0.0000   0.0000   0.0000   0.0000   0.0000   0.0000   0.0000   0.0000

          k = 0.1250 0.2165 0.0000 (  2017 PWs)   bands (ev):

   -85.8424 -49.1562 -49.1352 -49.0421 -37.6228 -10.5735  -9.1526   2.8531
     3.0240   3.8947   4.9382   5.8145   6.8613   8.4692   8.8009   9.0728
    10.8443  11.1368  13.0195  17.5552  20.2393  22.0252  22.6396  23.7991

     occupation numbers 
     1.0000   1.0000   1.0000   1.0000   1.0000   1.0000   1.0000   1.0000
     1.0000   1.0000   1.0000   1.0000   1.0000   1.0000   1.0000   1.0001
     0.0000   0.0000   0.0000   0.0000   0.0000   0.0000   0.0000   0.0000

          k = 0.1250 0.2165 0.1709 (  2012 PWs)   bands (ev):

   -85.8424 -49.1562 -49.1351 -49.0421 -37.6228 -10.5617  -9.1722   2.8514
     3.1753   3.8969   4.9359   5.8041   6.5032   8.4817   8.7461   9.2632
    10.6754  11.2934  13.4389  17.1739  20.3439  21.7025  22.8312  23.4604

     occupation numbers 
     1.0000   1.0000   1.0000   1.0000   1.0000   1.0000   1.0000   1.0000
     1.0000   1.0000   1.0000   1.0000   1.0000   1.0000   1.0000   1.0037
     0.0000   0.0000   0.0000   0.0000   0.0000   0.0000   0.0000   0.0000

          k = 0.1250 0.3608 0.0000 (  2004 PWs)   bands (ev):

   -85.8397 -49.1810 -49.1444 -49.0377 -37.6127 -10.0274  -9.1349   2.7143
     3.2500   3.8318   4.2419   5.2467   6.4561   8.4643   8.9252   9.0639
    10.6882  11.1227  13.6680  17.8545  19.6414  20.8798  22.1653  23.9394

     occupation numbers 
     1.0000   1.0000   1.0000   1.0000   1.0000   1.0000   1.0000   1.0000
     1.0000   1.0000   1.0000   1.0000   1.0000   1.0000   1.0000   1.0001
     0.0000   0.0000   0.0000   0.0000   0.0000   0.0000   0.0000   0.0000

          k = 0.1250 0.3608 0.1709 (  2005 PWs)   bands (ev):

   -85.8397 -49.1810 -49.1445 -49.0378 -37.6126 -10.0175  -9.1476   2.5771
     3.2426   4.0378   4.2507   5.2598   6.4500   8.4297   8.8766   9.1044
    10.5226  11.2113  13.7976  18.0670  19.1299  20.8271  22.6191  23.3344

     occupation numbers 
     1.0000   1.0000   1.0000   1.0000   1.0000   1.0000   1.0000   1.0000
     1.0000   1.0000   1.0000   1.0000   1.0000   1.0000   1.0000   1.0003
     0.0007   0.0000   0.0000   0.0000   0.0000   0.0000   0.0000   0.0000

          k = 0.1250 0.5052 0.0000 (  1995 PWs)   bands (ev):

   -85.8378 -49.1984 -49.1512 -49.0345 -37.6055  -9.5501  -9.1750   2.1522
     3.1780   4.2090   4.4764   5.0443   5.5989   8.3619   8.7460   9.0642
    10.9819  11.2372  14.1220  17.2946  18.7695  20.7716  22.2244  23.3208

     occupation numbers 
     1.0000   1.0000   1.0000   1.0000   1.0000   1.0000   1.0000   1.0000
     1.0000   1.0000   1.0000   1.0000   1.0000   1.0000   1.0000   1.0001
     0.0000   0.0000   0.0000   0.0000   0.0000   0.0000   0.0000   0.0000

          k = 0.1250 0.5052 0.1709 (  1996 PWs)   bands (ev):

   -85.8378 -49.1985 -49.1512 -49.0346 -37.6055  -9.5482  -9.1758   2.0544
     3.1198   4.2190   4.4861   5.0966   5.8752   8.2779   8.7591   9.0223
    10.8975  11.3273  13.9612  17.1851  19.0510  20.6312  22.1869  23.2685

     occupation numbers 
     1.0000   1.0000   1.0000   1.0000   1.0000   1.0000   1.0000   1.0000
     1.0000   1.0000   1.0000   1.0000   1.0000   1.0000   1.0000   1.0000
     0.0000   0.0000   0.0000   0.0000   0.0000   0.0000   0.0000   0.0000

          k = 0.2500 0.4330 0.0000 (  2011 PWs)   bands (ev):

   -85.8379 -49.1899 -49.1601 -49.0346 -37.6056  -9.5956  -9.1319   2.7228
     2.9407   3.9602   4.3574   4.7284   5.8484   8.4728   8.7992   9.1766
    10.6243  11.0735  14.4241  17.1514  19.0134  20.6035  22.7776  23.8607

     occupation numbers 
     1.0000   1.0000   1.0000   1.0000   1.0000   1.0000   1.0000   1.0000
     1.0000   1.0000   1.0000   1.0000   1.0000   1.0000   1.0000   1.0009
     0.0001   0.0000   0.0000   0.0000   0.0000   0.0000   0.0000   0.0000

          k = 0.2500 0.4330 0.1709 (  2010 PWs)   bands (ev):

   -85.8379 -49.1899 -49.1601 -49.0347 -37.6055  -9.5874  -9.1403   2.6530
     2.8355   3.9465   4.5768   4.7597   5.8596   8.4816   8.8092   9.0475
    10.8495  11.1203  14.0883  17.1049  19.2416  20.3656  22.4804  23.8461

     occupation numbers 
     1.0000   1.0000   1.0000   1.0000   1.0000   1.0000   1.0000   1.0000
     1.0000   1.0000   1.0000   1.0000   1.0000   1.0000   1.0000   1.0001
     0.0000   0.0000   0.0000   0.0000   0.0000   0.0000   0.0000   0.0000

          k = 0.2500 0.5774 0.0000 (  1978 PWs)   bands (ev):

   -85.8370 -49.1903 -49.1693 -49.0331 -37.6025  -9.3980  -9.1381   2.5698
     3.0463   3.6789   4.6009   4.9220   5.2681   8.3225   8.9316   9.1396
    10.7584  10.9298  14.9752  16.3085  19.0846  20.4985  23.3273  23.7117

     occupation numbers 
     1.0000   1.0000   1.0000   1.0000   1.0000   1.0000   1.0000   1.0000
     1.0000   1.0000   1.0000   1.0000   1.0000   1.0000   1.0000   1.0005
     0.0000   0.0000   0.0000   0.0000   0.0000   0.0000   0.0000   0.0000

          k = 0.2500 0.5774 0.1709 (  2008 PWs)   bands (ev):

   -85.8371 -49.1904 -49.1694 -49.0335 -37.6026  -9.3964  -9.1385   2.4928
     2.9740   3.6313   4.7005   4.9785   5.3863   8.3031   8.9300   9.0563
    10.9537  11.1076  14.5720  16.0181  19.3725  20.3853  22.7117  23.8696

     occupation numbers 
     1.0000   1.0000   1.0000   1.0000   1.0000   1.0000   1.0000   1.0000
     1.0000   1.0000   1.0000   1.0000   1.0000   1.0000   1.0000   1.0001
     0.0000   0.0000   0.0000   0.0000   0.0000   0.0000   0.0000   0.0000

          k = 0.0000-0.1443 0.1709 (  2019 PWs)   bands (ev):

   -85.8443 -49.1380 -49.1292 -49.0451 -37.6299 -10.9061  -9.1998   2.7143
     3.2906   3.7992   5.8540   6.1579   6.5487   8.3077   8.5013   9.2770
    11.1504  11.6082  13.0400  16.3083  19.5925  22.9439  23.7443  24.3337

     occupation numbers 
     1.0000   1.0000   1.0000   1.0000   1.0000   1.0000   1.0000   1.0000
     1.0000   1.0000   1.0000   1.0000   1.0000   1.0000   1.0000   1.0045
     0.0000   0.0000   0.0000   0.0000   0.0000   0.0000   0.0000   0.0000

          k = 0.0000-0.2887 0.1709 (  2008 PWs)   bands (ev):

   -85.8416 -49.1656 -49.1357 -49.0408 -37.6198 -10.4065  -9.1671   2.7585
     3.2920   4.0313   4.3812   5.9049   6.4084   8.3703   8.8472   9.1786
    10.6236  11.4798  13.3118  17.6858  19.8204  21.9053  23.1117  23.1390

     occupation numbers 
     1.0000   1.0000   1.0000   1.0000   1.0000   1.0000   1.0000   1.0000
     1.0000   1.0000   1.0000   1.0000   1.0000   1.0000   1.0000   1.0010
     0.0001   0.0000   0.0000   0.0000   0.0000   0.0000   0.0000   0.0000

          k = 0.0000-0.4330 0.1709 (  1996 PWs)   bands (ev):

   -85.8389 -49.1933 -49.1421 -49.0364 -37.6097  -9.8135  -9.1735   2.2032
     3.1975   4.1925   4.3695   5.6023   5.8756   8.2732   8.7864   9.0086
    10.8986  11.5136  13.5107  17.9201  19.3354  20.7691  22.2427  23.5076

     occupation numbers 
     1.0000   1.0000   1.0000   1.0000   1.0000   1.0000   1.0000   1.0000
     1.0000   1.0000   1.0000   1.0000   1.0000   1.0000   1.0000   1.0000
     0.0000   0.0000   0.0000   0.0000   0.0000   0.0000   0.0000   0.0000

          k =-0.1250-0.3608 0.1709 (  2005 PWs)   bands (ev):

   -85.8397 -49.1810 -49.1445 -49.0378 -37.6126 -10.0139  -9.1525   2.6260
     3.2256   4.0510   4.2725   5.2499   6.2825   8.5094   8.8859   9.0109
    10.8113  11.1329  13.6188  18.2521  19.2858  20.7896  22.2689  23.7722

     occupation numbers 
     1.0000   1.0000   1.0000   1.0000   1.0000   1.0000   1.0000   1.0000
     1.0000   1.0000   1.0000   1.0000   1.0000   1.0000   1.0000   1.0000
     0.0000   0.0000   0.0000   0.0000   0.0000   0.0000   0.0000   0.0000

          k =-0.1250-0.5052 0.1709 (  1996 PWs)   bands (ev):

   -85.8378 -49.1985 -49.1512 -49.0346 -37.6055  -9.5408  -9.1844   2.0732
     3.1177   4.2056   4.5956   5.0981   5.6826   8.3351   8.7515   8.9838
    11.0947  11.2600  13.8645  17.1463  19.6200  20.2899  21.8521  23.5951

     occupation numbers 
     1.0000   1.0000   1.0000   1.0000   1.0000   1.0000   1.0000   1.0000
     1.0000   1.0000   1.0000   1.0000   1.0000   1.0000   1.0000   1.0000
     0.0000   0.0000   0.0000   0.0000   0.0000   0.0000   0.0000   0.0000

 ------ SPIN DOWN ----------


          k = 0.0000 0.0000 0.0000 (  2029 PWs)   bands (ev):

   -85.8451 -49.1258 -49.1258 -49.0476 -37.6341 -11.1065  -9.1971   2.2318
     3.6953   3.6953   6.1466   7.0703   7.0703   8.0773   8.0773   9.0081
    11.6995  11.6995  12.0088  16.4740  19.2056  22.6746  24.8097  24.8097

     occupation numbers 
     1.0000   1.0000   1.0000   1.0000   1.0000   1.0000   1.0000   1.0000
     1.0000   1.0000   1.0000   1.0000   1.0000   1.0000   1.0000   1.0000
     0.0000   0.0000   0.0000   0.0000   0.0000   0.0000   0.0000   0.0000

          k = 0.0000 0.0000 0.1709 (  2024 PWs)   bands (ev):

   -85.8451 -49.1257 -49.1257 -49.0476 -37.6340 -11.0964  -9.2182   2.4947
     3.6965   3.6965   5.5065   7.0665   7.0665   8.0759   8.0759   9.2422
    11.7065  11.7065  12.7826  15.6688  19.0146  23.0243  24.9758  24.9758

     occupation numbers 
     1.0000   1.0000   1.0000   1.0000   1.0000   1.0000   1.0000   1.0000
     1.0000   1.0000   1.0000   1.0000   1.0000   1.0000   1.0000   1.0027
     0.0000   0.0000   0.0000   0.0000   0.0000   0.0000   0.0000   0.0000

          k = 0.0000 0.1443 0.0000 (  2019 PWs)   bands (ev):

   -85.8440 -49.1371 -49.1285 -49.0458 -37.6299 -10.9172  -9.1789   2.4572
     3.3446   3.7961   5.9848   6.5586   6.5764   8.3194   8.5002   9.0380
    11.1537  11.5972  12.4133  16.9793  19.6042  22.9945  23.6254  24.2444

     occupation numbers 
     1.0000   1.0000   1.0000   1.0000   1.0000   1.0000   1.0000   1.0000
     1.0000   1.0000   1.0000   1.0000   1.0000   1.0000   1.0000   1.0001
     0.0000   0.0000   0.0000   0.0000   0.0000   0.0000   0.0000   0.0000

          k = 0.0000 0.1443 0.1709 (  2019 PWs)   bands (ev):

   -85.8440 -49.1371 -49.1285 -49.0458 -37.6299 -10.9066  -9.1993   2.7011
     3.2938   3.7948   5.9289   6.1014   6.5620   8.2991   8.5010   9.2961
    11.0659  11.5919  13.1688  16.2174  19.6552  22.8840  23.7614  24.2346

     occupation numbers 
     1.0000   1.0000   1.0000   1.0000   1.0000   1.0000   1.0000   1.0000
     1.0000   1.0000   1.0000   1.0000   1.0000   1.0000   1.0000   1.0059
     0.0000   0.0000   0.0000   0.0000   0.0000   0.0000   0.0000   0.0000

          k = 0.0000 0.2887 0.0000 (  2021 PWs)   bands (ev):

   -85.8413 -49.1648 -49.1349 -49.0416 -37.6199 -10.4201  -9.1466   2.8158
     3.0914   4.0278   4.3561   5.9129   6.7649   8.3869   8.8430   9.0899
    10.5493  11.4794  13.0944  17.6494  20.3676  21.1721  23.0598  23.7562

     occupation numbers 
     1.0000   1.0000   1.0000   1.0000   1.0000   1.0000   1.0000   1.0000
     1.0000   1.0000   1.0000   1.0000   1.0000   1.0000   1.0000   1.0002
     0.0004   0.0000   0.0000   0.0000   0.0000   0.0000   0.0000   0.0000

          k = 0.0000 0.2887 0.1709 (  2008 PWs)   bands (ev):

   -85.8413 -49.1648 -49.1349 -49.0414 -37.6198 -10.4096  -9.1627   2.6849
     3.3074   4.0212   4.3857   5.9257   6.5917   8.3034   8.8490   9.2767
    10.2963  11.4559  13.6570  17.2757  20.3711  21.0956  23.0901  23.2867

     occupation numbers 
     1.0000   1.0000   1.0000   1.0000   1.0000   1.0000   1.0000   1.0000
     1.0000   1.0000   1.0000   1.0000   1.0000   1.0000   1.0000   1.0045
     0.0280   0.0000   0.0000   0.0000   0.0000   0.0000   0.0000   0.0000

          k = 0.0000 0.4330 0.0000 (  2014 PWs)   bands (ev):

   -85.8387 -49.1925 -49.1415 -49.0371 -37.6098  -9.8279  -9.1568   2.2759
     3.2444   4.1103   4.1973   5.5937   5.9718   8.2998   8.7826   9.0451
    10.8562  11.5345  13.6025  17.6550  19.0771  21.0500  22.1172  23.2661

     occupation numbers 
     1.0000   1.0000   1.0000   1.0000   1.0000   1.0000   1.0000   1.0000
     1.0000   1.0000   1.0000   1.0000   1.0000   1.0000   1.0000   1.0001
     0.0000   0.0000   0.0000   0.0000   0.0000   0.0000   0.0000   0.0000

          k = 0.0000 0.4330 0.1709 (  1996 PWs)   bands (ev):

   -85.8386 -49.1925 -49.1413 -49.0371 -37.6096  -9.8226  -9.1623   2.1534
     3.2136   4.1817   4.2415   5.6211   6.2128   8.1866   8.7855   9.0787
    10.5615  11.4983  13.8326  17.8484  18.6474  21.4480  22.2448  22.6995

     occupation numbers 
     1.0000   1.0000   1.0000   1.0000   1.0000   1.0000   1.0000   1.0000
     1.0000   1.0000   1.0000   1.0000   1.0000   1.0000   1.0000   1.0002
     0.0003   0.0000   0.0000   0.0000   0.0000   0.0000   0.0000   0.0000

          k = 0.0000-0.5774 0.0000 (  1982 PWs)   bands (ev):

   -85.8375 -49.2037 -49.1441 -49.0352 -37.6054  -9.4901  -9.2330   1.8418
     3.3001   4.2259   4.6054   5.2957   5.5529   8.1937   8.6799   8.9998
    11.1784  11.5939  13.7704  17.3755  18.5533  21.0107  21.7752  23.1143

     occupation numbers 
     1.0000   1.0000   1.0000   1.0000   1.0000   1.0000   1.0000   1.0000
     1.0000   1.0000   1.0000   1.0000   1.0000   1.0000   1.0000   1.0000
     0.0000   0.0000   0.0000   0.0000   0.0000   0.0000   0.0000   0.0000

          k = 0.0000-0.5774 0.1709 (  2004 PWs)   bands (ev):

   -85.8376 -49.2040 -49.1441 -49.0353 -37.6055  -9.4891  -9.2329   1.7514
     3.2628   4.2099   4.5287   5.5809   5.7142   8.1032   8.6795   8.9714
    11.0460  11.5584  13.7512  17.1659  19.3187  20.5908  21.9428  23.1445

     occupation numbers 
     1.0000   1.0000   1.0000   1.0000   1.0000   1.0000   1.0000   1.0000
     1.0000   1.0000   1.0000   1.0000   1.0000   1.0000   1.0000   1.0000
     0.0000   0.0000   0.0000   0.0000   0.0000   0.0000   0.0000   0.0000

          k = 0.1250 0.2165 0.0000 (  2017 PWs)   bands (ev):

   -85.8421 -49.1554 -49.1344 -49.0427 -37.6228 -10.5736  -9.1529   2.8531
     3.0242   3.8949   4.9381   5.8142   6.8611   8.4691   8.8007   9.0732
    10.8447  11.1371  13.0196  17.5552  20.2393  22.0253  22.6397  23.7992

     occupation numbers 
     1.0000   1.0000   1.0000   1.0000   1.0000   1.0000   1.0000   1.0000
     1.0000   1.0000   1.0000   1.0000   1.0000   1.0000   1.0000   1.0001
     0.0000   0.0000   0.0000   0.0000   0.0000   0.0000   0.0000   0.0000

          k = 0.1250 0.2165 0.1709 (  2012 PWs)   bands (ev):

   -85.8421 -49.1554 -49.1343 -49.0427 -37.6227 -10.5618  -9.1724   2.8516
     3.1753   3.8970   4.9358   5.8038   6.5030   8.4816   8.7460   9.2636
    10.6758  11.2937  13.4390  17.1739  20.3440  21.7026  22.8313  23.4605

     occupation numbers 
     1.0000   1.0000   1.0000   1.0000   1.0000   1.0000   1.0000   1.0000
     1.0000   1.0000   1.0000   1.0000   1.0000   1.0000   1.0000   1.0037
     0.0000   0.0000   0.0000   0.0000   0.0000   0.0000   0.0000   0.0000

          k = 0.1250 0.3608 0.0000 (  2004 PWs)   bands (ev):

   -85.8394 -49.1802 -49.1436 -49.0383 -37.6127 -10.0276  -9.1351   2.7144
     3.2499   3.8318   4.2419   5.2464   6.4559   8.4645   8.9255   9.0640
    10.6886  11.1228  13.6681  17.8545  19.6415  20.8798  22.1654  23.9394

     occupation numbers 
     1.0000   1.0000   1.0000   1.0000   1.0000   1.0000   1.0000   1.0000
     1.0000   1.0000   1.0000   1.0000   1.0000   1.0000   1.0000   1.0001
     0.0000   0.0000   0.0000   0.0000   0.0000   0.0000   0.0000   0.0000

          k = 0.1250 0.3608 0.1709 (  2005 PWs)   bands (ev):

   -85.8394 -49.1802 -49.1436 -49.0384 -37.6126 -10.0177  -9.1478   2.5771
     3.2425   4.0379   4.2506   5.2596   6.4498   8.4298   8.8768   9.1048
    10.5228  11.2113  13.7977  18.0670  19.1300  20.8272  22.6191  23.3345

     occupation numbers 
     1.0000   1.0000   1.0000   1.0000   1.0000   1.0000   1.0000   1.0000
     1.0000   1.0000   1.0000   1.0000   1.0000   1.0000   1.0000   1.0003
     0.0007   0.0000   0.0000   0.0000   0.0000   0.0000   0.0000   0.0000

          k = 0.1250 0.5052 0.0000 (  1995 PWs)   bands (ev):

   -85.8375 -49.1976 -49.1504 -49.0352 -37.6055  -9.5503  -9.1752   2.1521
     3.1779   4.2089   4.4764   5.0442   5.5987   8.3622   8.7465   9.0643
    10.9821  11.2372  14.1220  17.2947  18.7696  20.7717  22.2246  23.3210

     occupation numbers 
     1.0000   1.0000   1.0000   1.0000   1.0000   1.0000   1.0000   1.0000
     1.0000   1.0000   1.0000   1.0000   1.0000   1.0000   1.0000   1.0001
     0.0000   0.0000   0.0000   0.0000   0.0000   0.0000   0.0000   0.0000

          k = 0.1250 0.5052 0.1709 (  1996 PWs)   bands (ev):

   -85.8375 -49.1977 -49.1504 -49.0353 -37.6054  -9.5484  -9.1760   2.0543
     3.1197   4.2189   4.4861   5.0964   5.8751   8.2782   8.7596   9.0225
    10.8977  11.3272  13.9613  17.1853  19.0510  20.6313  22.1870  23.2684

     occupation numbers 
     1.0000   1.0000   1.0000   1.0000   1.0000   1.0000   1.0000   1.0000
     1.0000   1.0000   1.0000   1.0000   1.0000   1.0000   1.0000   1.0000
     0.0000   0.0000   0.0000   0.0000   0.0000   0.0000   0.0000   0.0000

          k = 0.2500 0.4330 0.0000 (  2011 PWs)   bands (ev):

   -85.8376 -49.1890 -49.1593 -49.0352 -37.6056  -9.5958  -9.1321   2.7227
     2.9406   3.9601   4.3575   4.7283   5.8483   8.4732   8.7998   9.1766
    10.6242  11.0737  14.4241  17.1515  19.0134  20.6035  22.7777  23.8612

     occupation numbers 
     1.0000   1.0000   1.0000   1.0000   1.0000   1.0000   1.0000   1.0000
     1.0000   1.0000   1.0000   1.0000   1.0000   1.0000   1.0000   1.0009
     0.0001   0.0000   0.0000   0.0000   0.0000   0.0000   0.0000   0.0000

          k = 0.2500 0.4330 0.1709 (  2010 PWs)   bands (ev):

   -85.8376 -49.1890 -49.1592 -49.0353 -37.6055  -9.5876  -9.1405   2.6529
     2.8354   3.9464   4.5768   4.7596   5.8594   8.4820   8.8097   9.0476
    10.8495  11.1205  14.0884  17.1050  19.2416  20.3656  22.4804  23.8461

     occupation numbers 
     1.0000   1.0000   1.0000   1.0000   1.0000   1.0000   1.0000   1.0000
     1.0000   1.0000   1.0000   1.0000   1.0000   1.0000   1.0000   1.0001
     0.0000   0.0000   0.0000   0.0000   0.0000   0.0000   0.0000   0.0000

          k = 0.2500 0.5774 0.0000 (  1978 PWs)   bands (ev):

   -85.8367 -49.1895 -49.1685 -49.0338 -37.6025  -9.3982  -9.1384   2.5697
     3.0461   3.6788   4.6009   4.9221   5.2680   8.3230   8.9321   9.1398
    10.7583  10.9300  14.9752  16.3086  19.0846  20.4985  23.3274  23.7121

     occupation numbers 
     1.0000   1.0000   1.0000   1.0000   1.0000   1.0000   1.0000   1.0000
     1.0000   1.0000   1.0000   1.0000   1.0000   1.0000   1.0000   1.0005
     0.0000   0.0000   0.0000   0.0000   0.0000   0.0000   0.0000   0.0000

          k = 0.2500 0.5774 0.1709 (  2008 PWs)   bands (ev):

   -85.8368 -49.1896 -49.1686 -49.0341 -37.6026  -9.3966  -9.1387   2.4927
     2.9738   3.6312   4.7004   4.9785   5.3861   8.3036   8.9304   9.0565
    10.9537  11.1077  14.5721  16.0182  19.3725  20.3853  22.7118  23.8697

     occupation numbers 
     1.0000   1.0000   1.0000   1.0000   1.0000   1.0000   1.0000   1.0000
     1.0000   1.0000   1.0000   1.0000   1.0000   1.0000   1.0000   1.0001
     0.0000   0.0000   0.0000   0.0000   0.0000   0.0000   0.0000   0.0000

          k = 0.0000-0.1443 0.1709 (  2019 PWs)   bands (ev):

   -85.8440 -49.1371 -49.1284 -49.0458 -37.6299 -10.9063  -9.2000   2.7144
     3.2908   3.7994   5.8538   6.1577   6.5484   8.3074   8.5010   9.2774
    11.1508  11.6086  13.0401  16.3083  19.5926  22.9440  23.7444  24.3337

     occupation numbers 
     1.0000   1.0000   1.0000   1.0000   1.0000   1.0000   1.0000   1.0000
     1.0000   1.0000   1.0000   1.0000   1.0000   1.0000   1.0000   1.0046
     0.0000   0.0000   0.0000   0.0000   0.0000   0.0000   0.0000   0.0000

          k = 0.0000-0.2887 0.1709 (  2008 PWs)   bands (ev):

   -85.8413 -49.1648 -49.1348 -49.0414 -37.6198 -10.4067  -9.1674   2.7587
     3.2920   4.0314   4.3811   5.9047   6.4082   8.3701   8.8472   9.1791
    10.6240  11.4800  13.3118  17.6857  19.8205  21.9054  23.1117  23.1391

     occupation numbers 
     1.0000   1.0000   1.0000   1.0000   1.0000   1.0000   1.0000   1.0000
     1.0000   1.0000   1.0000   1.0000   1.0000   1.0000   1.0000   1.0010
     0.0001   0.0000   0.0000   0.0000   0.0000   0.0000   0.0000   0.0000

          k = 0.0000-0.4330 0.1709 (  1996 PWs)   bands (ev):

   -85.8386 -49.1924 -49.1413 -49.0371 -37.6096  -9.8137  -9.1737   2.2032
     3.1974   4.1925   4.3696   5.6021   5.8754   8.2731   8.7868   9.0090
    10.8989  11.5135  13.5108  17.9202  19.3354  20.7692  22.2428  23.5076

     occupation numbers 
     1.0000   1.0000   1.0000   1.0000   1.0000   1.0000   1.0000   1.0000
     1.0000   1.0000   1.0000   1.0000   1.0000   1.0000   1.0000   1.0000
     0.0000   0.0000   0.0000   0.0000   0.0000   0.0000   0.0000   0.0000

          k =-0.1250-0.3608 0.1709 (  2005 PWs)   bands (ev):

   -85.8394 -49.1802 -49.1437 -49.0384 -37.6126 -10.0141  -9.1528   2.6260
     3.2255   4.0511   4.2724   5.2497   6.2824   8.5095   8.8861   9.0114
    10.8116  11.1330  13.6189  18.2521  19.2859  20.7897  22.2690  23.7724

     occupation numbers 
     1.0000   1.0000   1.0000   1.0000   1.0000   1.0000   1.0000   1.0000
     1.0000   1.0000   1.0000   1.0000   1.0000   1.0000   1.0000   1.0000
     0.0000   0.0000   0.0000   0.0000   0.0000   0.0000   0.0000   0.0000

          k =-0.1250-0.5052 0.1709 (  1996 PWs)   bands (ev):

   -85.8375 -49.1977 -49.1503 -49.0353 -37.6054  -9.5410  -9.1846   2.0731
     3.1176   4.2055   4.5956   5.0979   5.6824   8.3354   8.7521   8.9840
    11.0949  11.2599  13.8646  17.1464  19.6201  20.2900  21.8522  23.5950

     occupation numbers 
     1.0000   1.0000   1.0000   1.0000   1.0000   1.0000   1.0000   1.0000
     1.0000   1.0000   1.0000   1.0000   1.0000   1.0000   1.0000   1.0000
     0.0000   0.0000   0.0000   0.0000   0.0000   0.0000   0.0000   0.0000

     the Fermi energy is    10.0202 ev

     WARNING: integrated charge=    32.00366773, expected=    32.00000000

!    total energy              =    -475.17964858 Ry
     total all-electron energy =     -3103.051786 Ry
     estimated scf accuracy    <       0.00000002 Ry
     smearing contrib. (-TS)   =       0.00005578 Ry
     internal energy E=F+TS    =    -475.17970436 Ry

     The total energy is F=E-TS. E is the sum of the following terms:
     one-electron contribution =    -337.68810424 Ry
     hartree contribution      =     183.93055200 Ry
     xc contribution           =     -49.27441283 Ry
     ewald contribution        =    -165.46730675 Ry
     one-center paw contrib.   =    -106.68043254 Ry
      -> PAW hartree energy AE =     281.97043123 Ry
      -> PAW hartree energy PS =    -280.60129816 Ry
      -> PAW xc energy AE      =    -154.48703995 Ry
      -> PAW xc energy PS      =      46.43747433 Ry
      -> total E_H with PAW    =     185.29968507 Ry
      -> total E_XC with PAW   =    -157.32397845 Ry

     total magnetization       =     0.00 Bohr mag/cell
     absolute magnetization    =     0.00 Bohr mag/cell

     convergence has been achieved in  19 iterations

     Forces acting on atoms (cartesian axes, Ry/au):

     atom    1 type  1   force =    -0.00000000   -0.00000000    0.02112418
     atom    2 type  2   force =     0.00000000    0.00000000    0.06641857
     atom    3 type  2   force =    -0.00000000   -0.00000000   -0.08671138
     atom    4 type  3   force =     0.00000000    0.00000000   -0.00083137
     The non-local contrib.  to forces
     atom    1 type  1   force =     0.00000000    0.00000000   -0.02912596
     atom    2 type  2   force =     0.00000000    0.00000000   -0.62955263
     atom    3 type  2   force =     0.00000000   -0.00000000    0.46602048
     atom    4 type  3   force =     0.00000000   -0.00000000   -0.01798662
     The ionic contribution  to forces
     atom    1 type  1   force =    -0.00000000   -0.00000000    1.52728827
     atom    2 type  2   force =     0.00000000   -0.00000000   26.30990029
     atom    3 type  2   force =    -0.00000000    0.00000000  -25.50433824
     atom    4 type  3   force =     0.00000000   -0.00000000   -2.33285032
     The local contribution  to forces
     atom    1 type  1   force =    -0.00000000   -0.00000000   -1.47670601
     atom    2 type  2   force =     0.00000001   -0.00000001  -25.61884316
     atom    3 type  2   force =    -0.00000001    0.00000001   24.95503537
     atom    4 type  3   force =    -0.00000000   -0.00000000    2.35000707
     The core correction contribution to forces
     atom    1 type  1   force =    -0.00000000    0.00000000   -0.00007127
     atom    2 type  2   force =    -0.00000000    0.00000000    0.00483444
     atom    3 type  2   force =     0.00000000   -0.00000000   -0.00337879
     atom    4 type  3   force =     0.00000000    0.00000000    0.00000000
     The Hubbard contrib.    to forces
     atom    1 type  1   force =     0.00000000    0.00000000    0.00000000
     atom    2 type  2   force =     0.00000000    0.00000000    0.00000000
     atom    3 type  2   force =     0.00000000    0.00000000    0.00000000
     atom    4 type  3   force =     0.00000000    0.00000000    0.00000000
     The SCF correction term to forces
     atom    1 type  1   force =     0.00000000   -0.00000000   -0.00026456
     atom    2 type  2   force =    -0.00000000    0.00000000    0.00007594
     atom    3 type  2   force =     0.00000000   -0.00000000   -0.00005392
     atom    4 type  3   force =     0.00000000   -0.00000000   -0.00000521

     Total force =     0.111253     Total SCF correction =     0.000281

     Writing all to output data dir ./out/pw.save/ :
     XML data file, charge density, pseudopotentials, collected wavefunctions
 
     init_run     :      9.39s CPU      2.42s WALL (       1 calls)
     electrons    :     92.85s CPU     23.78s WALL (       1 calls)
     forces       :      0.67s CPU      0.54s WALL (       1 calls)

     Called by init_run:
     wfcinit      :      0.25s CPU      0.32s WALL (       1 calls)
     wfcinit:atom :      0.04s CPU      0.05s WALL (      50 calls)
     wfcinit:wfcr :      0.15s CPU      0.21s WALL (      50 calls)
     potinit      :      8.65s CPU      1.51s WALL (       1 calls)
     hinit0       :      0.41s CPU      0.40s WALL (       1 calls)

     Called by electrons:
     c_bands      :     10.60s CPU     10.68s WALL (      19 calls)
     sum_band     :      2.05s CPU      2.08s WALL (      19 calls)
     v_of_rho     :      0.29s CPU      0.16s WALL (      20 calls)
     v_h          :      0.21s CPU      0.03s WALL (      20 calls)
     v_xc         :      0.09s CPU      0.14s WALL (      21 calls)
     newd         :      0.47s CPU      0.43s WALL (      20 calls)
                                        0.43s GPU  (      20 calls)
     PAW_pot      :     82.62s CPU     10.58s WALL (      20 calls)
     mix_rho      :      0.49s CPU      0.48s WALL (      19 calls)

     Called by c_bands:
     init_us_2    :      0.80s CPU      0.80s WALL (    2000 calls)
     cegterg      :      9.30s CPU      9.37s WALL (     950 calls)

     Called by sum_band:
     sum_band:wei :      0.03s CPU      0.03s WALL (      19 calls)
                                        0.03s GPU  (      19 calls)
     sum_band:loo :      1.31s CPU      1.32s WALL (      19 calls)
                                        1.32s GPU  (      19 calls)
     sum_band:buf :      0.12s CPU      0.14s WALL (     950 calls)
                                        0.13s GPU  (     950 calls)
     sum_band:ini :      0.38s CPU      0.39s WALL (     950 calls)
                                        0.38s GPU  (     950 calls)
     sum_band:cal :      0.03s CPU      0.13s WALL (     950 calls)
                                        0.12s GPU  (     950 calls)
     sum_band:bec :      0.20s CPU      0.22s WALL (     950 calls)
                                        0.21s GPU  (     950 calls)
     addusdens    :      0.63s CPU      0.63s WALL (      19 calls)
                                        0.63s GPU  (      19 calls)
     addusd:skk   :      0.00s CPU      0.00s WALL (      57 calls)
                                        0.00s GPU  (      57 calls)

     Called by *egterg:
     cdiaghg      :      3.03s CPU      3.16s WALL (    3904 calls)
                                        3.11s GPU  (    3904 calls)
     cegterg:over :      0.53s CPU      0.55s WALL (    2954 calls)
     cegterg:upda :      0.56s CPU      0.56s WALL (    2954 calls)
     cegterg:last :      0.10s CPU      0.10s WALL (    1710 calls)
     h_psi        :      3.56s CPU      3.66s WALL (    3954 calls)
                                        3.61s GPU  (    3954 calls)
     s_psi        :      0.63s CPU      0.65s WALL (    3954 calls)
     g_psi        :      0.02s CPU      0.07s WALL (    2954 calls)
                                        0.03s GPU  (    2954 calls)

     Called by h_psi:
     h_psi:calbec :      0.10s CPU      0.38s WALL (    3954 calls)
                                        0.32s GPU  (    3954 calls)
     vloc_psi     :      2.30s CPU      2.34s WALL (    3954 calls)
                                        2.29s GPU  (    3954 calls)
     add_vuspsi   :      0.57s CPU      0.66s WALL (    3954 calls)
                                        0.61s GPU  (    3954 calls)

     General routines
     calbec       :      0.11s CPU      0.14s WALL (    5104 calls)
     fft          :      2.98s CPU      0.59s WALL (     513 calls)
                                        0.02s GPU  (     473 calls)
     ffts         :      1.82s CPU      0.35s WALL (     626 calls)
                                        0.01s GPU  (     586 calls)
     fftw         :      0.25s CPU      0.78s WALL (   13712 calls)
                                        0.62s GPU  (   13712 calls)
     interpolate  :      4.87s CPU      0.91s WALL (      40 calls)
 
     Parallel routines

     PAW routines
     PAW_pot      :     82.62s CPU     10.58s WALL (      20 calls)
     PAW_symme    :      0.02s CPU      0.00s WALL (      39 calls)
 
     PWSCF        :   1m43.69s CPU     27.45s WALL

 
   This run was terminated on:   3:19:25  12Jul2026            

=------------------------------------------------------------------------------=
   JOB DONE.
=------------------------------------------------------------------------------=
Warning: ieee_divide_by_zero is signaling
Warning: ieee_inexact is signaling
FORTRAN STOP
