
     Program PWSCF v.7.3.1 starts on 12Jul2026 at  2:14:10 

     This program is part of the open-source Quantum ESPRESSO suite
     for quantum simulation of materials; please cite
         "P. Giannozzi et al., J. Phys.:Condens. Matter 21 395502 (2009);
         "P. Giannozzi et al., J. Phys.:Condens. Matter 29 465901 (2017);
         "P. Giannozzi et al., J. Chem. Phys. 152 154105 (2020);
          URL http://www.quantum-espresso.org", 
     in publications or presentations arising from this work. More details at
     http://www.quantum-espresso.org/quote

     Parallel version (MPI & OpenMP), running on      14 processor cores
     Number of MPI processes:                 1
     Threads/MPI process:                    14

     MPI processes distributed on     1 nodes
     852351 MiB available memory on the printing compute node when the environment starts
 
     Reading input from pw.in

     Current dimensions of program PWSCF are:
     Max number of different atomic species (ntypx) = 10
     Max number of k-points (npk) =  40000
     Max angular momentum in pseudopotentials (lmaxx) =  4
     file Co.pbe-spn-kjpaw_psl.0.3.1.UPF: wavefunction(s)  3P 3D renormalized
     file O.pbe-n-kjpaw_psl.1.0.0.UPF: wavefunction(s)  2S 2P renormalized
     file Na.pbe-spn-kjpaw_psl.1.0.0.UPF: wavefunction(s)  2P renormalized
 
     Subspace diagonalization in iterative solution of the eigenvalue problem:
     a serial algorithm will be used

 
     G-vector sticks info
     --------------------
     sticks:   dense  smooth     PW     G-vecs:    dense   smooth      PW
     Sum         979     499    151                59641    21167    3485
 
     Using Slab Decomposition
 


     bravais-lattice index     =            4
     lattice parameter (alat)  =       5.4575  a.u.
     unit-cell volume          =     336.3339 (a.u.)^3
     number of atoms/cell      =            4
     number of atomic types    =            3
     number of electrons       =        38.00
     number of Kohn-Sham states=           27
     kinetic-energy cutoff     =      60.0000  Ry
     charge density cutoff     =     480.0000  Ry
     scf convergence threshold =      1.0E-08
     mixing beta               =       0.3000
     number of iterations used =            8  plain     mixing
     Exchange-correlation= SLA  PW   PBX  PBC
                           (   1   4   3   4   0   0   0)

     GPU acceleration is ACTIVE.  1 visible GPUs per MPI rank
     GPU-aware MPI enabled


     GPU used by master process:

        Device Number: 0
        Device name: NVIDIA A100-SXM4-80GB
        Compute capability : 80
        Ratio of single to double precision performance  : 2
        Memory Clock Rate (KHz): 1593000
        Memory Bus Width (bits): 5120
        Peak Memory Bandwidth (GB/s): ******

     celldm(1)=   5.457529  celldm(2)=   0.000000  celldm(3)=   2.389197
     celldm(4)=   0.000000  celldm(5)=   0.000000  celldm(6)=   0.000000

     crystal axes: (cart. coord. in units of alat)
               a(1) = (   1.000000   0.000000   0.000000 )  
               a(2) = (  -0.500000   0.866025   0.000000 )  
               a(3) = (   0.000000   0.000000   2.389197 )  

     reciprocal axes: (cart. coord. in units 2 pi/alat)
               b(1) = (  1.000000  0.577350 -0.000000 )  
               b(2) = (  0.000000  1.154701  0.000000 )  
               b(3) = (  0.000000 -0.000000  0.418551 )  


     PseudoPot. # 1 for Co read from file:
     ../../pseudo/Co.pbe-spn-kjpaw_psl.0.3.1.UPF
     MD5 check sum: 3c0a43779828c046024e4f3be63f8e67
     Pseudo is Projector augmented-wave + core cor, Zval = 17.0
     Generated using &quot;atomic&quot; code by A. Dal Corso  v.6.2.2
     Shape of augmentation charge: PSQ
     Using radial grid of 1193 points,  6 beta functions with: 
                l(1) =   0
                l(2) =   0
                l(3) =   1
                l(4) =   1
                l(5) =   2
                l(6) =   2
     Q(r) pseudized with 0 coefficients 


     PseudoPot. # 2 for O  read from file:
     ../../pseudo/O.pbe-n-kjpaw_psl.1.0.0.UPF
     MD5 check sum: e99d9cef9b487d1ca56f5b95ecd0fd7a
     Pseudo is Projector augmented-wave + core cor, Zval =  6.0
     Generated using &quot;atomic&quot; code by A. Dal Corso  v.6.3
     Shape of augmentation charge: PSQ
     Using radial grid of 1095 points,  4 beta functions with: 
                l(1) =   0
                l(2) =   0
                l(3) =   1
                l(4) =   1
     Q(r) pseudized with 0 coefficients 


     PseudoPot. # 3 for Na read from file:
     ../../pseudo/Na.pbe-spn-kjpaw_psl.1.0.0.UPF
     MD5 check sum: 05b4deb74e3932c23ab016979dc8b5d4
     Pseudo is Projector augmented-wave + core cor, Zval =  9.0
     Generated using &quot;atomic&quot; code by A. Dal Corso  v.6.3
     Shape of augmentation charge: PSQ
     Using radial grid of 1121 points,  4 beta functions with: 
                l(1) =   0
                l(2) =   0
                l(3) =   1
                l(4) =   1
     Q(r) pseudized with 0 coefficients 


     atomic species   valence    mass     pseudopotential
     Co               17.00    58.93300     Co( 1.00)
     O                 6.00    15.99900     O ( 1.00)
     Na                9.00    22.98977     Na( 1.00)

     Starting magnetic structure 
     atomic species   magnetization
     Co              0.300
     O               0.000
     Na              0.000

      6 Sym. Ops. (no inversion) found


                                    s                        frac. trans.

      isym =  1     identity                                     

 cryst.   s( 1) = (     1          0          0      )
                  (     0          1          0      )
                  (     0          0          1      )

 cart.    s( 1) = (  1.0000000  0.0000000  0.0000000 )
                  (  0.0000000  1.0000000  0.0000000 )
                  (  0.0000000  0.0000000  1.0000000 )


      isym =  2     120 deg rotation - cryst. axis [0,0,1]       

 cryst.   s( 2) = (     0          1          0      )
                  (    -1         -1          0      )
                  (     0          0          1      )

 cart.    s( 2) = ( -0.5000000 -0.8660254  0.0000000 )
                  (  0.8660254 -0.5000000  0.0000000 )
                  (  0.0000000  0.0000000  1.0000000 )


      isym =  3     120 deg rotation - cryst. axis [0,0,-1]      

 cryst.   s( 3) = (    -1         -1          0      )
                  (     1          0          0      )
                  (     0          0          1      )

 cart.    s( 3) = ( -0.5000000  0.8660254  0.0000000 )
                  ( -0.8660254 -0.5000000  0.0000000 )
                  (  0.0000000  0.0000000  1.0000000 )


      isym =  4     inv. 180 deg rotation - cart. axis [1,0,0]   

 cryst.   s( 4) = (    -1          0          0      )
                  (     1          1          0      )
                  (     0          0          1      )

 cart.    s( 4) = ( -1.0000000  0.0000000  0.0000000 )
                  (  0.0000000  1.0000000  0.0000000 )
                  (  0.0000000  0.0000000  1.0000000 )


      isym =  5     inv. 180 deg rotation - cryst. axis [0,1,0]  

 cryst.   s( 5) = (     1          1          0      )
                  (     0         -1          0      )
                  (     0          0          1      )

 cart.    s( 5) = (  0.5000000  0.8660254  0.0000000 )
                  (  0.8660254 -0.5000000  0.0000000 )
                  (  0.0000000  0.0000000  1.0000000 )


      isym =  6     inv. 180 deg rotation - cryst. axis [1,1,0]  

 cryst.   s( 6) = (     0         -1          0      )
                  (    -1          0          0      )
                  (     0          0          1      )

 cart.    s( 6) = (  0.5000000 -0.8660254  0.0000000 )
                  ( -0.8660254 -0.5000000  0.0000000 )
                  (  0.0000000  0.0000000  1.0000000 )


     point group C_3v (3m)  
     there are  3 classes
     the character table:

       E     2C3   3s_v 
A_1    1.00  1.00  1.00
A_2    1.00  1.00 -1.00
E      2.00 -1.00  0.00

     the symmetry operations in each class and the name of the first element:

     E        1
          identity                                               
     2C3      2    3
          120 deg rotation - cryst. axis [0,0,1]                 
     3s_v     4    5    6
          inv. 180 deg rotation - cart. axis [1,0,0]             

   Cartesian axes

     site n.     atom                  positions (alat units)
         1        Co     tau(   1) = (   0.0000000   0.0000000   0.0000000  )
         2        O      tau(   2) = (  -0.0000000   0.5773503   0.3324100  )
         3        O      tau(   3) = (   0.5000000   0.2886751   2.0567867  )
         4        Na     tau(   4) = (  -0.0000000   0.5773503   1.1945983  )

   Crystallographic axes

     site n.     atom                  positions (cryst. coord.)
         1        Co     tau(   1) = (  0.0000000  0.0000000  0.0000000  )
         2        O      tau(   2) = (  0.3333333  0.6666667  0.1391304  )
         3        O      tau(   3) = (  0.6666667  0.3333333  0.8608696  )
         4        Na     tau(   4) = (  0.3333333  0.6666667  0.5000000  )

     number of k points=    25  Marzari-Vanderbilt smearing, width (Ry)=  0.0200
                       cart. coord. in units 2pi/alat
        k(    1) = (   0.0000000   0.0000000   0.0000000), wk =   0.0052083
        k(    2) = (   0.0000000   0.0000000   0.1395169), wk =   0.0104167
        k(    3) = (   0.0000000   0.1443376   0.0000000), wk =   0.0312500
        k(    4) = (   0.0000000   0.1443376   0.1395169), wk =   0.0312500
        k(    5) = (   0.0000000   0.2886751   0.0000000), wk =   0.0312500
        k(    6) = (   0.0000000   0.2886751   0.1395169), wk =   0.0312500
        k(    7) = (   0.0000000   0.4330127   0.0000000), wk =   0.0312500
        k(    8) = (   0.0000000   0.4330127   0.1395169), wk =   0.0312500
        k(    9) = (   0.0000000  -0.5773503   0.0000000), wk =   0.0156250
        k(   10) = (   0.0000000  -0.5773503   0.1395169), wk =   0.0312500
        k(   11) = (   0.1250000   0.2165064   0.0000000), wk =   0.0312500
        k(   12) = (   0.1250000   0.2165064   0.1395169), wk =   0.0625000
        k(   13) = (   0.1250000   0.3608439   0.0000000), wk =   0.0625000
        k(   14) = (   0.1250000   0.3608439   0.1395169), wk =   0.0625000
        k(   15) = (   0.1250000   0.5051815   0.0000000), wk =   0.0625000
        k(   16) = (   0.1250000   0.5051815   0.1395169), wk =   0.0625000
        k(   17) = (   0.2500000   0.4330127   0.0000000), wk =   0.0312500
        k(   18) = (   0.2500000   0.4330127   0.1395169), wk =   0.0625000
        k(   19) = (   0.2500000   0.5773503   0.0000000), wk =   0.0312500
        k(   20) = (   0.2500000   0.5773503   0.1395169), wk =   0.0625000
        k(   21) = (   0.0000000  -0.1443376   0.1395169), wk =   0.0312500
        k(   22) = (   0.0000000  -0.2886751   0.1395169), wk =   0.0312500
        k(   23) = (   0.0000000  -0.4330127   0.1395169), wk =   0.0312500
        k(   24) = (  -0.1250000  -0.3608439   0.1395169), wk =   0.0625000
        k(   25) = (  -0.1250000  -0.5051815   0.1395169), wk =   0.0625000

                       cryst. coord.
        k(    1) = (   0.0000000   0.0000000   0.0000000), wk =   0.0052083
        k(    2) = (   0.0000000   0.0000000   0.3333333), wk =   0.0104167
        k(    3) = (   0.0000000   0.1250000   0.0000000), wk =   0.0312500
        k(    4) = (   0.0000000   0.1250000   0.3333333), wk =   0.0312500
        k(    5) = (   0.0000000   0.2500000   0.0000000), wk =   0.0312500
        k(    6) = (   0.0000000   0.2500000   0.3333333), wk =   0.0312500
        k(    7) = (   0.0000000   0.3750000   0.0000000), wk =   0.0312500
        k(    8) = (   0.0000000   0.3750000   0.3333333), wk =   0.0312500
        k(    9) = (   0.0000000  -0.5000000   0.0000000), wk =   0.0156250
        k(   10) = (   0.0000000  -0.5000000   0.3333333), wk =   0.0312500
        k(   11) = (   0.1250000   0.1250000   0.0000000), wk =   0.0312500
        k(   12) = (   0.1250000   0.1250000   0.3333333), wk =   0.0625000
        k(   13) = (   0.1250000   0.2500000   0.0000000), wk =   0.0625000
        k(   14) = (   0.1250000   0.2500000   0.3333333), wk =   0.0625000
        k(   15) = (   0.1250000   0.3750000   0.0000000), wk =   0.0625000
        k(   16) = (   0.1250000   0.3750000   0.3333333), wk =   0.0625000
        k(   17) = (   0.2500000   0.2500000   0.0000000), wk =   0.0312500
        k(   18) = (   0.2500000   0.2500000   0.3333333), wk =   0.0625000
        k(   19) = (   0.2500000   0.3750000   0.0000000), wk =   0.0312500
        k(   20) = (   0.2500000   0.3750000   0.3333333), wk =   0.0625000
        k(   21) = (   0.0000000  -0.1250000   0.3333333), wk =   0.0312500
        k(   22) = (   0.0000000  -0.2500000   0.3333333), wk =   0.0312500
        k(   23) = (   0.0000000  -0.3750000   0.3333333), wk =   0.0312500
        k(   24) = (  -0.1250000  -0.2500000   0.3333333), wk =   0.0625000
        k(   25) = (  -0.1250000  -0.3750000   0.3333333), wk =   0.0625000

     Dense  grid:    59641 G-vectors     FFT dimensions: (  40,  40,  96)

     Smooth grid:    21167 G-vectors     FFT dimensions: (  27,  27,  72)

     Dynamical RAM for                 wfc:       1.09 MB

     Dynamical RAM for     wfc (w. buffer):      55.47 MB

     Dynamical RAM for           str. fact:       2.73 MB

     Dynamical RAM for           local pot:       0.00 MB

     Dynamical RAM for          nlocal pot:       1.69 MB

     Dynamical RAM for                qrad:       5.27 MB

     Dynamical RAM for          rho,v,vnew:      12.49 MB

     Dynamical RAM for               rhoin:       4.16 MB

     Dynamical RAM for            rho*nmix:      29.12 MB

     Dynamical RAM for           G-vectors:       3.57 MB

     Dynamical RAM for          h,s,v(r/c):       0.13 MB

     Dynamical RAM for          <psi|beta>:       0.02 MB

     Dynamical RAM for                 psi:       2.18 MB

     Dynamical RAM for                hpsi:       2.18 MB

     Dynamical RAM for                spsi:       2.18 MB

     Dynamical RAM for      wfcinit/wfcrot:       2.19 MB

     Dynamical RAM for           addusdens:     172.00 MB

     Dynamical RAM for          addusforce:     173.84 MB

     Estimated static dynamical RAM per process >      96.07 MB

     Estimated max dynamical RAM per process >     299.02 MB

     Check: negative core charge=   -0.000008
     Generating pointlists ...
     new r_m :   0.2748 (alat units)  1.4998 (a.u.) for type    1
     new r_m :   0.2748 (alat units)  1.4998 (a.u.) for type    2
     new r_m :   0.3557 (alat units)  1.9410 (a.u.) for type    3

     Initial potential from superposition of free atoms

     starting charge      37.9934, renormalised to      38.0000
     Starting wfcs are   23 randomized atomic wfcs +    4 random wfcs
     Checking if some PAW data can be deallocated... 

     total cpu time spent up to now is        3.6 secs

     Self-consistent Calculation
[tb_dev] Currently allocated     6.54E-01 Mbytes, locked:    0 /   6
[tb_pin] Currently allocated     0.00E+00 Mbytes, locked:    0 /   0

     iteration #  1     ecut=    60.00 Ry     beta= 0.30
     Davidson diagonalization with overlap

---- Real-time Memory Report at c_bands before calling an iterative solver
           689 MiB given to the printing process from OS
             0 MiB allocation reported by mallinfo(arena+hblkhd)
        851984 MiB available memory on the node where the printing process lives
     GPU memory used/free/total (MiB): 998 / 80152 / 81151
------------------
     ethr =  1.00E-02,  avg # of iterations =  9.6

     total cpu time spent up to now is        5.6 secs

     total energy              =    -568.71498138 Ry
     estimated scf accuracy    <       1.52732129 Ry

     total magnetization       =     4.02 Bohr mag/cell
     absolute magnetization    =     4.02 Bohr mag/cell
[tb_dev] Currently allocated     3.05E-05 Mbytes, locked:    0 /   2
[tb_pin] Currently allocated     0.00E+00 Mbytes, locked:    0 /   0

     iteration #  2     ecut=    60.00 Ry     beta= 0.30
     Davidson diagonalization with overlap

---- Real-time Memory Report at c_bands before calling an iterative solver
           732 MiB given to the printing process from OS
             0 MiB allocation reported by mallinfo(arena+hblkhd)
        851961 MiB available memory on the node where the printing process lives
     GPU memory used/free/total (MiB): 1012 / 80138 / 81151
------------------
     ethr =  4.02E-03,  avg # of iterations =  2.1

     total cpu time spent up to now is        6.6 secs

     total energy              =    -568.86496328 Ry
     estimated scf accuracy    <       2.04077745 Ry

     total magnetization       =     0.99 Bohr mag/cell
     absolute magnetization    =     1.32 Bohr mag/cell
[tb_dev] Currently allocated     3.05E-05 Mbytes, locked:    0 /   2
[tb_pin] Currently allocated     0.00E+00 Mbytes, locked:    0 /   0

     iteration #  3     ecut=    60.00 Ry     beta= 0.30
     Davidson diagonalization with overlap

---- Real-time Memory Report at c_bands before calling an iterative solver
           734 MiB given to the printing process from OS
             0 MiB allocation reported by mallinfo(arena+hblkhd)
        851950 MiB available memory on the node where the printing process lives
     GPU memory used/free/total (MiB): 1012 / 80138 / 81151
------------------
     ethr =  4.02E-03,  avg # of iterations =  1.3

     total cpu time spent up to now is        7.6 secs

     total energy              =    -569.05491259 Ry
     estimated scf accuracy    <       0.65385451 Ry

     total magnetization       =     3.67 Bohr mag/cell
     absolute magnetization    =     3.70 Bohr mag/cell
[tb_dev] Currently allocated     3.05E-05 Mbytes, locked:    0 /   2
[tb_pin] Currently allocated     0.00E+00 Mbytes, locked:    0 /   0

     iteration #  4     ecut=    60.00 Ry     beta= 0.30
     Davidson diagonalization with overlap

---- Real-time Memory Report at c_bands before calling an iterative solver
           735 MiB given to the printing process from OS
             0 MiB allocation reported by mallinfo(arena+hblkhd)
        851984 MiB available memory on the node where the printing process lives
     GPU memory used/free/total (MiB): 1012 / 80138 / 81151
------------------
     ethr =  1.72E-03,  avg # of iterations =  1.7

     total cpu time spent up to now is        8.7 secs

     total energy              =    -569.17120373 Ry
     estimated scf accuracy    <       0.21578726 Ry

     total magnetization       =     2.34 Bohr mag/cell
     absolute magnetization    =     2.36 Bohr mag/cell
[tb_dev] Currently allocated     3.05E-05 Mbytes, locked:    0 /   2
[tb_pin] Currently allocated     0.00E+00 Mbytes, locked:    0 /   0

     iteration #  5     ecut=    60.00 Ry     beta= 0.30
     Davidson diagonalization with overlap

---- Real-time Memory Report at c_bands before calling an iterative solver
           735 MiB given to the printing process from OS
             0 MiB allocation reported by mallinfo(arena+hblkhd)
        851973 MiB available memory on the node where the printing process lives
     GPU memory used/free/total (MiB): 1012 / 80138 / 81151
------------------
     ethr =  5.68E-04,  avg # of iterations =  2.6

     total cpu time spent up to now is        9.8 secs

     total energy              =    -569.20056433 Ry
     estimated scf accuracy    <       0.19382031 Ry

     total magnetization       =     1.61 Bohr mag/cell
     absolute magnetization    =     1.74 Bohr mag/cell
[tb_dev] Currently allocated     3.05E-05 Mbytes, locked:    0 /   2
[tb_pin] Currently allocated     0.00E+00 Mbytes, locked:    0 /   0

     iteration #  6     ecut=    60.00 Ry     beta= 0.30
     Davidson diagonalization with overlap

---- Real-time Memory Report at c_bands before calling an iterative solver
           737 MiB given to the printing process from OS
             0 MiB allocation reported by mallinfo(arena+hblkhd)
        851947 MiB available memory on the node where the printing process lives
     GPU memory used/free/total (MiB): 1012 / 80138 / 81151
------------------
     ethr =  5.10E-04,  avg # of iterations =  1.6

     total cpu time spent up to now is       10.9 secs

     total energy              =    -569.23056085 Ry
     estimated scf accuracy    <       0.06626825 Ry

     total magnetization       =     1.03 Bohr mag/cell
     absolute magnetization    =     1.28 Bohr mag/cell
[tb_dev] Currently allocated     3.05E-05 Mbytes, locked:    0 /   2
[tb_pin] Currently allocated     0.00E+00 Mbytes, locked:    0 /   0

     iteration #  7     ecut=    60.00 Ry     beta= 0.30
     Davidson diagonalization with overlap

---- Real-time Memory Report at c_bands before calling an iterative solver
           738 MiB given to the printing process from OS
             0 MiB allocation reported by mallinfo(arena+hblkhd)
        851957 MiB available memory on the node where the printing process lives
     GPU memory used/free/total (MiB): 1012 / 80138 / 81151
------------------
     ethr =  1.74E-04,  avg # of iterations =  2.9

     total cpu time spent up to now is       12.0 secs

     total energy              =    -569.25341930 Ry
     estimated scf accuracy    <       0.07552924 Ry

     total magnetization       =     0.61 Bohr mag/cell
     absolute magnetization    =     0.94 Bohr mag/cell
[tb_dev] Currently allocated     3.05E-05 Mbytes, locked:    0 /   2
[tb_pin] Currently allocated     0.00E+00 Mbytes, locked:    0 /   0

     iteration #  8     ecut=    60.00 Ry     beta= 0.30
     Davidson diagonalization with overlap

---- Real-time Memory Report at c_bands before calling an iterative solver
           738 MiB given to the printing process from OS
             0 MiB allocation reported by mallinfo(arena+hblkhd)
        851965 MiB available memory on the node where the printing process lives
     GPU memory used/free/total (MiB): 1012 / 80138 / 81151
------------------
     ethr =  1.74E-04,  avg # of iterations =  2.3

     total cpu time spent up to now is       13.1 secs

     total energy              =    -569.25563429 Ry
     estimated scf accuracy    <       0.09528146 Ry

     total magnetization       =     0.12 Bohr mag/cell
     absolute magnetization    =     0.36 Bohr mag/cell
[tb_dev] Currently allocated     3.05E-05 Mbytes, locked:    0 /   2
[tb_pin] Currently allocated     0.00E+00 Mbytes, locked:    0 /   0

     iteration #  9     ecut=    60.00 Ry     beta= 0.30
     Davidson diagonalization with overlap

---- Real-time Memory Report at c_bands before calling an iterative solver
           740 MiB given to the printing process from OS
             0 MiB allocation reported by mallinfo(arena+hblkhd)
        851992 MiB available memory on the node where the printing process lives
     GPU memory used/free/total (MiB): 1012 / 80138 / 81151
------------------
     ethr =  1.74E-04,  avg # of iterations =  1.6

     total cpu time spent up to now is       14.2 secs

     total energy              =    -569.24628601 Ry
     estimated scf accuracy    <       0.02223139 Ry

     total magnetization       =     0.26 Bohr mag/cell
     absolute magnetization    =     0.55 Bohr mag/cell
[tb_dev] Currently allocated     3.05E-05 Mbytes, locked:    0 /   2
[tb_pin] Currently allocated     0.00E+00 Mbytes, locked:    0 /   0

     iteration # 10     ecut=    60.00 Ry     beta= 0.30
     Davidson diagonalization with overlap

---- Real-time Memory Report at c_bands before calling an iterative solver
           741 MiB given to the printing process from OS
             0 MiB allocation reported by mallinfo(arena+hblkhd)
        852483 MiB available memory on the node where the printing process lives
     GPU memory used/free/total (MiB): 1012 / 80138 / 81151
------------------
     ethr =  5.85E-05,  avg # of iterations =  5.5

     total cpu time spent up to now is       15.7 secs

     total energy              =    -569.26749855 Ry
     estimated scf accuracy    <       0.05709021 Ry

     total magnetization       =    -0.33 Bohr mag/cell
     absolute magnetization    =     0.34 Bohr mag/cell
[tb_dev] Currently allocated     3.05E-05 Mbytes, locked:    0 /   2
[tb_pin] Currently allocated     0.00E+00 Mbytes, locked:    0 /   0

     iteration # 11     ecut=    60.00 Ry     beta= 0.30
     Davidson diagonalization with overlap

---- Real-time Memory Report at c_bands before calling an iterative solver
           741 MiB given to the printing process from OS
             0 MiB allocation reported by mallinfo(arena+hblkhd)
        852265 MiB available memory on the node where the printing process lives
     GPU memory used/free/total (MiB): 1012 / 80138 / 81151
------------------
     ethr =  5.85E-05,  avg # of iterations =  1.1

     total cpu time spent up to now is       16.7 secs

     total energy              =    -569.26339330 Ry
     estimated scf accuracy    <       0.02907226 Ry

     total magnetization       =    -0.28 Bohr mag/cell
     absolute magnetization    =     0.29 Bohr mag/cell
[tb_dev] Currently allocated     3.05E-05 Mbytes, locked:    0 /   2
[tb_pin] Currently allocated     0.00E+00 Mbytes, locked:    0 /   0

     iteration # 12     ecut=    60.00 Ry     beta= 0.30
     Davidson diagonalization with overlap

---- Real-time Memory Report at c_bands before calling an iterative solver
           741 MiB given to the printing process from OS
             0 MiB allocation reported by mallinfo(arena+hblkhd)
        852155 MiB available memory on the node where the printing process lives
     GPU memory used/free/total (MiB): 1012 / 80138 / 81151
------------------
     ethr =  5.85E-05,  avg # of iterations =  1.8

     total cpu time spent up to now is       17.8 secs

     total energy              =    -569.26673379 Ry
     estimated scf accuracy    <       0.00113661 Ry

     total magnetization       =     0.11 Bohr mag/cell
     absolute magnetization    =     0.19 Bohr mag/cell
[tb_dev] Currently allocated     3.05E-05 Mbytes, locked:    0 /   2
[tb_pin] Currently allocated     0.00E+00 Mbytes, locked:    0 /   0

     iteration # 13     ecut=    60.00 Ry     beta= 0.30
     Davidson diagonalization with overlap

---- Real-time Memory Report at c_bands before calling an iterative solver
           741 MiB given to the printing process from OS
             0 MiB allocation reported by mallinfo(arena+hblkhd)
        852161 MiB available memory on the node where the printing process lives
     GPU memory used/free/total (MiB): 1012 / 80138 / 81151
------------------
     ethr =  2.99E-06,  avg # of iterations =  8.5

     total cpu time spent up to now is       19.7 secs

     total energy              =    -569.26826932 Ry
     estimated scf accuracy    <       0.00651895 Ry

     total magnetization       =     0.17 Bohr mag/cell
     absolute magnetization    =     0.32 Bohr mag/cell
[tb_dev] Currently allocated     3.05E-05 Mbytes, locked:    0 /   2
[tb_pin] Currently allocated     0.00E+00 Mbytes, locked:    0 /   0

     iteration # 14     ecut=    60.00 Ry     beta= 0.30
     Davidson diagonalization with overlap

---- Real-time Memory Report at c_bands before calling an iterative solver
           741 MiB given to the printing process from OS
             0 MiB allocation reported by mallinfo(arena+hblkhd)
        851910 MiB available memory on the node where the printing process lives
     GPU memory used/free/total (MiB): 1012 / 80138 / 81151
------------------
     ethr =  2.99E-06,  avg # of iterations =  3.1

     total cpu time spent up to now is       20.9 secs

     total energy              =    -569.26909502 Ry
     estimated scf accuracy    <       0.00016614 Ry

     total magnetization       =     0.11 Bohr mag/cell
     absolute magnetization    =     0.18 Bohr mag/cell
[tb_dev] Currently allocated     3.05E-05 Mbytes, locked:    0 /   2
[tb_pin] Currently allocated     0.00E+00 Mbytes, locked:    0 /   0

     iteration # 15     ecut=    60.00 Ry     beta= 0.30
     Davidson diagonalization with overlap

---- Real-time Memory Report at c_bands before calling an iterative solver
           741 MiB given to the printing process from OS
             0 MiB allocation reported by mallinfo(arena+hblkhd)
        852164 MiB available memory on the node where the printing process lives
     GPU memory used/free/total (MiB): 1012 / 80138 / 81151
------------------
     ethr =  4.37E-07,  avg # of iterations =  5.2

     total cpu time spent up to now is       22.4 secs

     total energy              =    -569.26914246 Ry
     estimated scf accuracy    <       0.00032265 Ry

     total magnetization       =     0.12 Bohr mag/cell
     absolute magnetization    =     0.17 Bohr mag/cell
[tb_dev] Currently allocated     3.05E-05 Mbytes, locked:    0 /   2
[tb_pin] Currently allocated     0.00E+00 Mbytes, locked:    0 /   0

     iteration # 16     ecut=    60.00 Ry     beta= 0.30
     Davidson diagonalization with overlap

---- Real-time Memory Report at c_bands before calling an iterative solver
           741 MiB given to the printing process from OS
             0 MiB allocation reported by mallinfo(arena+hblkhd)
        852034 MiB available memory on the node where the printing process lives
     GPU memory used/free/total (MiB): 1012 / 80138 / 81151
------------------
     ethr =  4.37E-07,  avg # of iterations =  1.7

     total cpu time spent up to now is       23.5 secs

     total energy              =    -569.26925243 Ry
     estimated scf accuracy    <       0.00019171 Ry

     total magnetization       =     0.17 Bohr mag/cell
     absolute magnetization    =     0.22 Bohr mag/cell
[tb_dev] Currently allocated     3.05E-05 Mbytes, locked:    0 /   2
[tb_pin] Currently allocated     0.00E+00 Mbytes, locked:    0 /   0

     iteration # 17     ecut=    60.00 Ry     beta= 0.30
     Davidson diagonalization with overlap

---- Real-time Memory Report at c_bands before calling an iterative solver
           741 MiB given to the printing process from OS
             0 MiB allocation reported by mallinfo(arena+hblkhd)
        851978 MiB available memory on the node where the printing process lives
     GPU memory used/free/total (MiB): 1012 / 80138 / 81151
------------------
     ethr =  4.37E-07,  avg # of iterations =  1.1

     total cpu time spent up to now is       24.6 secs

     total energy              =    -569.26927606 Ry
     estimated scf accuracy    <       0.00002924 Ry

     total magnetization       =     0.17 Bohr mag/cell
     absolute magnetization    =     0.22 Bohr mag/cell
[tb_dev] Currently allocated     3.05E-05 Mbytes, locked:    0 /   2
[tb_pin] Currently allocated     0.00E+00 Mbytes, locked:    0 /   0

     iteration # 18     ecut=    60.00 Ry     beta= 0.30
     Davidson diagonalization with overlap

---- Real-time Memory Report at c_bands before calling an iterative solver
           741 MiB given to the printing process from OS
             0 MiB allocation reported by mallinfo(arena+hblkhd)
        851774 MiB available memory on the node where the printing process lives
     GPU memory used/free/total (MiB): 1012 / 80138 / 81151
------------------
     ethr =  7.69E-08,  avg # of iterations =  4.1

     total cpu time spent up to now is       26.0 secs

     total energy              =    -569.26929164 Ry
     estimated scf accuracy    <       0.00001698 Ry

     total magnetization       =     0.18 Bohr mag/cell
     absolute magnetization    =     0.23 Bohr mag/cell
[tb_dev] Currently allocated     3.05E-05 Mbytes, locked:    0 /   2
[tb_pin] Currently allocated     0.00E+00 Mbytes, locked:    0 /   0

     iteration # 19     ecut=    60.00 Ry     beta= 0.30
     Davidson diagonalization with overlap

---- Real-time Memory Report at c_bands before calling an iterative solver
           741 MiB given to the printing process from OS
             0 MiB allocation reported by mallinfo(arena+hblkhd)
        851726 MiB available memory on the node where the printing process lives
     GPU memory used/free/total (MiB): 1012 / 80138 / 81151
------------------
     ethr =  4.47E-08,  avg # of iterations =  1.8

     total cpu time spent up to now is       27.1 secs

     total energy              =    -569.26929318 Ry
     estimated scf accuracy    <       0.00001746 Ry

     total magnetization       =     0.18 Bohr mag/cell
     absolute magnetization    =     0.23 Bohr mag/cell
[tb_dev] Currently allocated     3.05E-05 Mbytes, locked:    0 /   2
[tb_pin] Currently allocated     0.00E+00 Mbytes, locked:    0 /   0

     iteration # 20     ecut=    60.00 Ry     beta= 0.30
     Davidson diagonalization with overlap

---- Real-time Memory Report at c_bands before calling an iterative solver
           741 MiB given to the printing process from OS
             0 MiB allocation reported by mallinfo(arena+hblkhd)
        851729 MiB available memory on the node where the printing process lives
     GPU memory used/free/total (MiB): 1012 / 80138 / 81151
------------------
     ethr =  4.47E-08,  avg # of iterations =  1.1

     total cpu time spent up to now is       28.1 secs

     total energy              =    -569.26929511 Ry
     estimated scf accuracy    <       0.00001673 Ry

     total magnetization       =     0.18 Bohr mag/cell
     absolute magnetization    =     0.23 Bohr mag/cell
[tb_dev] Currently allocated     3.05E-05 Mbytes, locked:    0 /   2
[tb_pin] Currently allocated     0.00E+00 Mbytes, locked:    0 /   0

     iteration # 21     ecut=    60.00 Ry     beta= 0.30
     Davidson diagonalization with overlap

---- Real-time Memory Report at c_bands before calling an iterative solver
           741 MiB given to the printing process from OS
             0 MiB allocation reported by mallinfo(arena+hblkhd)
        852261 MiB available memory on the node where the printing process lives
     GPU memory used/free/total (MiB): 1012 / 80138 / 81151
------------------
     ethr =  4.40E-08,  avg # of iterations =  1.1

     total cpu time spent up to now is       29.1 secs

     total energy              =    -569.26930106 Ry
     estimated scf accuracy    <       0.00000302 Ry

     total magnetization       =     0.19 Bohr mag/cell
     absolute magnetization    =     0.24 Bohr mag/cell
[tb_dev] Currently allocated     3.05E-05 Mbytes, locked:    0 /   2
[tb_pin] Currently allocated     0.00E+00 Mbytes, locked:    0 /   0

     iteration # 22     ecut=    60.00 Ry     beta= 0.30
     Davidson diagonalization with overlap

---- Real-time Memory Report at c_bands before calling an iterative solver
           741 MiB given to the printing process from OS
             0 MiB allocation reported by mallinfo(arena+hblkhd)
        852053 MiB available memory on the node where the printing process lives
     GPU memory used/free/total (MiB): 1012 / 80138 / 81151
------------------
     ethr =  7.94E-09,  avg # of iterations =  4.2

     total cpu time spent up to now is       30.4 secs

     total energy              =    -569.26930123 Ry
     estimated scf accuracy    <       0.00000174 Ry

     total magnetization       =     0.19 Bohr mag/cell
     absolute magnetization    =     0.24 Bohr mag/cell
[tb_dev] Currently allocated     3.05E-05 Mbytes, locked:    0 /   2
[tb_pin] Currently allocated     0.00E+00 Mbytes, locked:    0 /   0

     iteration # 23     ecut=    60.00 Ry     beta= 0.30
     Davidson diagonalization with overlap

---- Real-time Memory Report at c_bands before calling an iterative solver
           741 MiB given to the printing process from OS
             0 MiB allocation reported by mallinfo(arena+hblkhd)
        851933 MiB available memory on the node where the printing process lives
     GPU memory used/free/total (MiB): 1012 / 80138 / 81151
------------------
     ethr =  4.59E-09,  avg # of iterations =  4.2

     total cpu time spent up to now is       31.8 secs

     total energy              =    -569.26930385 Ry
     estimated scf accuracy    <       0.00000043 Ry

     total magnetization       =     0.19 Bohr mag/cell
     absolute magnetization    =     0.25 Bohr mag/cell
[tb_dev] Currently allocated     3.05E-05 Mbytes, locked:    0 /   2
[tb_pin] Currently allocated     0.00E+00 Mbytes, locked:    0 /   0

     iteration # 24     ecut=    60.00 Ry     beta= 0.30
     Davidson diagonalization with overlap

---- Real-time Memory Report at c_bands before calling an iterative solver
           741 MiB given to the printing process from OS
             0 MiB allocation reported by mallinfo(arena+hblkhd)
        851956 MiB available memory on the node where the printing process lives
     GPU memory used/free/total (MiB): 1012 / 80138 / 81151
------------------
     ethr =  1.14E-09,  avg # of iterations =  4.4

     total cpu time spent up to now is       33.2 secs

     total energy              =    -569.26930456 Ry
     estimated scf accuracy    <       0.00000046 Ry

     total magnetization       =     0.19 Bohr mag/cell
     absolute magnetization    =     0.25 Bohr mag/cell
[tb_dev] Currently allocated     3.05E-05 Mbytes, locked:    0 /   2
[tb_pin] Currently allocated     0.00E+00 Mbytes, locked:    0 /   0

     iteration # 25     ecut=    60.00 Ry     beta= 0.30
     Davidson diagonalization with overlap

---- Real-time Memory Report at c_bands before calling an iterative solver
           741 MiB given to the printing process from OS
             0 MiB allocation reported by mallinfo(arena+hblkhd)
        851817 MiB available memory on the node where the printing process lives
     GPU memory used/free/total (MiB): 1012 / 80138 / 81151
------------------
     ethr =  1.14E-09,  avg # of iterations =  2.8

     total cpu time spent up to now is       34.3 secs

     total energy              =    -569.26930537 Ry
     estimated scf accuracy    <       0.00000006 Ry

     total magnetization       =     0.19 Bohr mag/cell
     absolute magnetization    =     0.26 Bohr mag/cell
[tb_dev] Currently allocated     3.05E-05 Mbytes, locked:    0 /   2
[tb_pin] Currently allocated     0.00E+00 Mbytes, locked:    0 /   0

     iteration # 26     ecut=    60.00 Ry     beta= 0.30
     Davidson diagonalization with overlap

---- Real-time Memory Report at c_bands before calling an iterative solver
           741 MiB given to the printing process from OS
             0 MiB allocation reported by mallinfo(arena+hblkhd)
        851805 MiB available memory on the node where the printing process lives
     GPU memory used/free/total (MiB): 1012 / 80138 / 81151
------------------
     ethr =  1.55E-10,  avg # of iterations =  5.9

     total cpu time spent up to now is       36.0 secs

     total energy              =    -569.26930553 Ry
     estimated scf accuracy    <       0.00000005 Ry

     total magnetization       =     0.19 Bohr mag/cell
     absolute magnetization    =     0.26 Bohr mag/cell
[tb_dev] Currently allocated     3.05E-05 Mbytes, locked:    0 /   2
[tb_pin] Currently allocated     0.00E+00 Mbytes, locked:    0 /   0

     iteration # 27     ecut=    60.00 Ry     beta= 0.30
     Davidson diagonalization with overlap

---- Real-time Memory Report at c_bands before calling an iterative solver
           741 MiB given to the printing process from OS
             0 MiB allocation reported by mallinfo(arena+hblkhd)
        851852 MiB available memory on the node where the printing process lives
     GPU memory used/free/total (MiB): 1012 / 80138 / 81151
------------------
     ethr =  1.24E-10,  avg # of iterations =  2.5

     total cpu time spent up to now is       37.3 secs

     total energy              =    -569.26930564 Ry
     estimated scf accuracy    <       0.00000002 Ry

     total magnetization       =     0.19 Bohr mag/cell
     absolute magnetization    =     0.26 Bohr mag/cell
[tb_dev] Currently allocated     3.05E-05 Mbytes, locked:    0 /   2
[tb_pin] Currently allocated     0.00E+00 Mbytes, locked:    0 /   0

     iteration # 28     ecut=    60.00 Ry     beta= 0.30
     Davidson diagonalization with overlap

---- Real-time Memory Report at c_bands before calling an iterative solver
           741 MiB given to the printing process from OS
             0 MiB allocation reported by mallinfo(arena+hblkhd)
        851850 MiB available memory on the node where the printing process lives
     GPU memory used/free/total (MiB): 1012 / 80138 / 81151
------------------
     ethr =  4.13E-11,  avg # of iterations =  5.0
 
     Magnetic moment per site  (integrated on atomic sphere of radius R)
     atom   1 (R=0.275)  charge= 14.1337  magn=  0.1868
     atom   2 (R=0.275)  charge=  5.2502  magn=  0.0105
     atom   3 (R=0.275)  charge=  5.2419  magn=  0.0100
     atom   4 (R=0.356)  charge=  8.0314  magn= -0.0080

     total cpu time spent up to now is       38.9 secs

     End of self-consistent calculation

 ------ SPIN UP ------------


          k = 0.0000 0.0000 0.0000 (  2625 PWs)   bands (ev):

   -87.5868 -50.8210 -50.8210 -50.8198 -45.9525 -17.7916 -17.7916 -17.7402
   -11.9327 -10.1154   1.4673   2.5536   2.5536   4.8900   5.9070   5.9070
     6.3501   6.4666   6.4666   7.8835  10.0418  10.0418  13.1565  15.3461
    18.1221  22.3758  24.6618

     occupation numbers 
     1.0000   1.0000   1.0000   1.0000   1.0000   1.0000   1.0000   1.0000
     1.0000   1.0000   1.0000   1.0000   1.0000   1.0000   1.0000   1.0000
     1.0000   1.0000   1.0000   0.1344   0.0000   0.0000   0.0000   0.0000
     0.0000   0.0000   0.0000

          k = 0.0000 0.0000 0.1395 (  2666 PWs)   bands (ev):

   -87.5868 -50.8213 -50.8213 -50.8200 -45.9526 -17.7920 -17.7920 -17.7410
   -11.9256 -10.1259   1.6236   2.5534   2.5534   4.2074   5.9073   5.9073
     6.4666   6.4666   7.2192   7.8123  10.0412  10.0412  12.2404  16.3452
    18.0139  22.1529  24.7327

     occupation numbers 
     1.0000   1.0000   1.0000   1.0000   1.0000   1.0000   1.0000   1.0000
     1.0000   1.0000   1.0000   1.0000   1.0000   1.0000   1.0000   1.0000
     1.0000   1.0000   1.0471   0.2501   0.0000   0.0000   0.0000   0.0000
     0.0000   0.0000   0.0000

          k = 0.0000 0.1443 0.0000 (  2643 PWs)   bands (ev):

   -87.5860 -50.8296 -50.8232 -50.8187 -45.9473 -17.8354 -17.8012 -17.7333
   -11.7619 -10.1113   1.6976   2.2817   2.6565   4.8210   5.3117   5.3558
     6.6433   6.7621   6.9268   8.0490   9.5628   9.9416  13.4464  15.9777
    18.7914  21.5383  22.3161

     occupation numbers 
     1.0000   1.0000   1.0000   1.0000   1.0000   1.0000   1.0000   1.0000
     1.0000   1.0000   1.0000   1.0000   1.0000   1.0000   1.0000   1.0000
     1.0000   1.0001   1.0014   0.0194   0.0000   0.0000   0.0000   0.0000
     0.0000   0.0000   0.0000

          k = 0.0000 0.1443 0.1395 (  2651 PWs)   bands (ev):

   -87.5861 -50.8296 -50.8232 -50.8187 -45.9474 -17.8355 -17.8012 -17.7337
   -11.7554 -10.1204   1.8291   2.2459   2.6564   4.7469   4.8730   5.3560
     6.7164   6.9268   7.3664   7.8963   9.7083   9.9414  12.6794  16.9179
    18.4862  21.5661  22.3351

     occupation numbers 
     1.0000   1.0000   1.0000   1.0000   1.0000   1.0000   1.0000   1.0000
     1.0000   1.0000   1.0000   1.0000   1.0000   1.0000   1.0000   1.0000
     1.0000   1.0014   1.0832   0.1187   0.0000   0.0000   0.0000   0.0000
     0.0000   0.0000   0.0000

          k = 0.0000 0.2887 0.0000 (  2620 PWs)   bands (ev):

   -87.5842 -50.8498 -50.8279 -50.8156 -45.9348 -17.9390 -17.8235 -17.7158
   -11.3132 -10.1148   1.9019   2.2744   2.9009   3.3878   4.7522   5.6472
     6.8456   7.2210   7.2443   8.2617   9.1664   9.8151  14.0172  17.3441
    18.0342  20.2288  21.3666

     occupation numbers 
     1.0000   1.0000   1.0000   1.0000   1.0000   1.0000   1.0000   1.0000
     1.0000   1.0000   1.0000   1.0000   1.0000   1.0000   1.0000   1.0000
     1.0003   1.0477   1.0558   0.0006   0.0000   0.0000   0.0000   0.0000
     0.0000   0.0000   0.0000

          k = 0.0000 0.2887 0.1395 (  2636 PWs)   bands (ev):

   -87.5842 -50.8499 -50.8281 -50.8156 -45.9349 -17.9391 -17.8238 -17.7161
   -11.3086 -10.1205   1.8455   2.3607   2.9008   3.4314   4.7521   5.4885
     6.7710   7.2209   7.5220   7.8451   9.6517   9.8151  13.5854  17.6479
    18.3018  19.7296  21.5601

     occupation numbers 
     1.0000   1.0000   1.0000   1.0000   1.0000   1.0000   1.0000   1.0000
     1.0000   1.0000   1.0000   1.0000   1.0000   1.0000   1.0000   1.0000
     1.0001   1.0477   0.9582   0.1909   0.0000   0.0000   0.0000   0.0000
     0.0000   0.0000   0.0000

          k = 0.0000 0.4330 0.0000 (  2652 PWs)   bands (ev):

   -87.5824 -50.8703 -50.8330 -50.8126 -45.9224 -18.0412 -17.8465 -17.6987
   -10.7718 -10.1702   1.4073   2.3776   3.0975   3.3334   4.4745   5.1242
     6.7734   7.1028   7.3116   8.9229   9.8474  10.0144  14.5598  15.0817
    18.5584  19.2104  21.0154

     occupation numbers 
     1.0000   1.0000   1.0000   1.0000   1.0000   1.0000   1.0000   1.0000
     1.0000   1.0000   1.0000   1.0000   1.0000   1.0000   1.0000   1.0000
     1.0001   1.0161   1.0767   0.0000   0.0000   0.0000   0.0000   0.0000
     0.0000   0.0000   0.0000

          k = 0.0000 0.4330 0.1395 (  2641 PWs)   bands (ev):

   -87.5824 -50.8702 -50.8329 -50.8127 -45.9224 -18.0411 -17.8463 -17.6987
   -10.7696 -10.1725   1.3919   2.3621   3.0978   3.3818   4.4742   5.1560
     6.7545   7.1028   7.3239   8.6508   9.8476  10.3158  14.5264  14.8802
    18.9951  19.4633  20.5355

     occupation numbers 
     1.0000   1.0000   1.0000   1.0000   1.0000   1.0000   1.0000   1.0000
     1.0000   1.0000   1.0000   1.0000   1.0000   1.0000   1.0000   1.0000
     1.0001   1.0161   1.0794   0.0000   0.0000   0.0000   0.0000   0.0000
     0.0000   0.0000   0.0000

          k = 0.0000-0.5774 0.0000 (  2642 PWs)   bands (ev):

   -87.5817 -50.8787 -50.8350 -50.8113 -45.9172 -18.0831 -17.8556 -17.6913
   -10.3965 -10.3289   1.0173   2.4862   3.1410   3.6440   4.4558   4.7294
     6.6266   6.9671   7.2577   9.3047   9.8957  11.3345  12.7874  15.6766
    17.3269  19.5078  20.8368

     occupation numbers 
     1.0000   1.0000   1.0000   1.0000   1.0000   1.0000   1.0000   1.0000
     1.0000   1.0000   1.0000   1.0000   1.0000   1.0000   1.0000   1.0000
     1.0000   1.0027   1.0604   0.0000   0.0000   0.0000   0.0000   0.0000
     0.0000   0.0000   0.0000

          k = 0.0000-0.5774 0.1395 (  2638 PWs)   bands (ev):

   -87.5817 -50.8786 -50.8349 -50.8113 -45.9172 -18.0828 -17.8555 -17.6914
   -10.3945 -10.3306   1.0100   2.4714   3.1413   3.6475   4.4554   4.7852
     6.6184   6.9671   7.2519   9.3131   9.8958  11.2044  12.7375  16.0403
    17.3772  19.5658  20.4754

     occupation numbers 
     1.0000   1.0000   1.0000   1.0000   1.0000   1.0000   1.0000   1.0000
     1.0000   1.0000   1.0000   1.0000   1.0000   1.0000   1.0000   1.0000
     1.0000   1.0027   1.0584   0.0000   0.0000   0.0000   0.0000   0.0000
     0.0000   0.0000   0.0000

          k = 0.1250 0.2165 0.0000 (  2659 PWs)   bands (ev):

   -87.5848 -50.8431 -50.8276 -50.8166 -45.9386 -17.9043 -17.8222 -17.7213
   -11.4520 -10.1102   2.0302   2.1032   2.7807   3.8841   4.6475   5.6778
     6.8759   7.1065   7.2263   8.2264   9.1466   9.7675  13.8630  17.0259
    19.0404  19.9420  21.6744

     occupation numbers 
     1.0000   1.0000   1.0000   1.0000   1.0000   1.0000   1.0000   1.0000
     1.0000   1.0000   1.0000   1.0000   1.0000   1.0000   1.0000   1.0000
     1.0006   1.0168   1.0495   0.0011   0.0000   0.0000   0.0000   0.0000
     0.0000   0.0000   0.0000

          k = 0.1250 0.2165 0.1395 (  2634 PWs)   bands (ev):

   -87.5847 -50.8429 -50.8276 -50.8165 -45.9385 -17.9040 -17.8221 -17.7211
   -11.4466 -10.1172   1.9698   2.2132   2.7827   3.9214   4.6468   5.3859
     6.8778   7.0994   7.4806   8.0763   9.4435   9.7237  13.4486  17.7107
    18.9765  19.4626  21.7884

     occupation numbers 
     1.0000   1.0000   1.0000   1.0000   1.0000   1.0000   1.0000   1.0000
     1.0000   1.0000   1.0000   1.0000   1.0000   1.0000   1.0000   1.0000
     1.0006   1.0155   1.0186   0.0132   0.0000   0.0000   0.0000   0.0000
     0.0000   0.0000   0.0000

          k = 0.1250 0.3608 0.0000 (  2630 PWs)   bands (ev):

   -87.5829 -50.8612 -50.8344 -50.8135 -45.9260 -17.9958 -17.8553 -17.7037
   -10.9577 -10.1321   1.8222   2.3135   2.9810   3.2575   4.1502   5.4605
     6.9059   7.2221   7.4087   8.7027   9.2995   9.8620  14.5242  16.2569
    18.4805  19.9539  20.9959

     occupation numbers 
     1.0000   1.0000   1.0000   1.0000   1.0000   1.0000   1.0000   1.0000
     1.0000   1.0000   1.0000   1.0000   1.0000   1.0000   1.0000   1.0000
     1.0010   1.0481   1.0746   0.0000   0.0000   0.0000   0.0000   0.0000
     0.0000   0.0000   0.0000

          k = 0.1250 0.3608 0.1395 (  2633 PWs)   bands (ev):

   -87.5829 -50.8612 -50.8345 -50.8135 -45.9260 -17.9959 -17.8554 -17.7037
   -10.9544 -10.1359   1.7873   2.3131   3.0174   3.2998   4.1501   5.4418
     6.8974   7.2166   7.3913   8.4288   9.5376   9.9718  14.4160  16.1585
    18.8710  20.0688  20.6372

     occupation numbers 
     1.0000   1.0000   1.0000   1.0000   1.0000   1.0000   1.0000   1.0000
     1.0000   1.0000   1.0000   1.0000   1.0000   1.0000   1.0000   1.0000
     1.0009   1.0463   1.0800   0.0000   0.0000   0.0000   0.0000   0.0000
     0.0000   0.0000   0.0000

          k = 0.1250 0.5052 0.0000 (  2636 PWs)   bands (ev):

   -87.5817 -50.8741 -50.8395 -50.8113 -45.9172 -18.0594 -17.8795 -17.6913
   -10.5005 -10.2259   1.3066   2.2936   3.2507   3.5631   4.0249   4.8199
     6.7465   7.0482   7.3808   9.2263   9.6022  11.0095  13.6382  15.6282
    17.9339  19.2975  20.7377

     occupation numbers 
     1.0000   1.0000   1.0000   1.0000   1.0000   1.0000   1.0000   1.0000
     1.0000   1.0000   1.0000   1.0000   1.0000   1.0000   1.0000   1.0000
     1.0000   1.0084   1.0819   0.0000   0.0000   0.0000   0.0000   0.0000
     0.0000   0.0000   0.0000

          k = 0.1250 0.5052 0.1395 (  2647 PWs)   bands (ev):

   -87.5817 -50.8741 -50.8395 -50.8114 -45.9172 -18.0595 -17.8796 -17.6915
   -10.4994 -10.2268   1.2992   2.2810   3.2469   3.5790   4.0251   4.8578
     6.7398   7.0502   7.3697   9.1805   9.6336  11.0027  13.5329  15.7211
    18.1982  19.3941  20.7311

     occupation numbers 
     1.0000   1.0000   1.0000   1.0000   1.0000   1.0000   1.0000   1.0000
     1.0000   1.0000   1.0000   1.0000   1.0000   1.0000   1.0000   1.0000
     1.0000   1.0086   1.0831   0.0000   0.0000   0.0000   0.0000   0.0000
     0.0000   0.0000   0.0000

          k = 0.2500 0.4330 0.0000 (  2639 PWs)   bands (ev):

   -87.5817 -50.8677 -50.8458 -50.8114 -45.9172 -18.0267 -17.9126 -17.6915
   -10.5548 -10.1726   1.8810   1.9881   2.9838   3.5913   3.7309   4.9290
     6.8316   7.1056   7.5263   9.1037   9.3434  10.8302  14.5232  15.5821
    18.0372  19.6099  20.2022

     occupation numbers 
     1.0000   1.0000   1.0000   1.0000   1.0000   1.0000   1.0000   1.0000
     1.0000   1.0000   1.0000   1.0000   1.0000   1.0000   1.0000   1.0000
     1.0003   1.0166   0.9506   0.0000   0.0000   0.0000   0.0000   0.0000
     0.0000   0.0000   0.0000

          k = 0.2500 0.4330 0.1395 (  2630 PWs)   bands (ev):

   -87.5817 -50.8676 -50.8458 -50.8114 -45.9172 -18.0265 -17.9125 -17.6915
   -10.5528 -10.1746   1.8779   1.9684   2.9855   3.6354   3.7245   4.9281
     6.8335   7.1092   7.4919   9.1864   9.3129  10.7470  14.5187  15.7359
    17.9805  19.5552  20.3427

     occupation numbers 
     1.0000   1.0000   1.0000   1.0000   1.0000   1.0000   1.0000   1.0000
     1.0000   1.0000   1.0000   1.0000   1.0000   1.0000   1.0000   1.0000
     1.0003   1.0173   1.0042   0.0000   0.0000   0.0000   0.0000   0.0000
     0.0000   0.0000   0.0000

          k = 0.2500 0.5774 0.0000 (  2630 PWs)   bands (ev):

   -87.5811 -50.8682 -50.8527 -50.8104 -45.9135 -18.0279 -17.9476 -17.6863
   -10.3180 -10.2507   1.7155   2.1152   2.7516   3.7418   3.9866   4.4445
     6.6216   7.2704   7.4702   9.2678   9.3110  12.0799  13.1722  16.7157
    17.0706  18.4465  20.5742

     occupation numbers 
     1.0000   1.0000   1.0000   1.0000   1.0000   1.0000   1.0000   1.0000
     1.0000   1.0000   1.0000   1.0000   1.0000   1.0000   1.0000   1.0000
     1.0000   1.0647   1.0304   0.0000   0.0000   0.0000   0.0000   0.0000
     0.0000   0.0000   0.0000

          k = 0.2500 0.5774 0.1395 (  2649 PWs)   bands (ev):

   -87.5811 -50.8682 -50.8528 -50.8106 -45.9136 -18.0280 -17.9478 -17.6866
   -10.3172 -10.2514   1.7097   2.1089   2.7519   3.7448   3.9909   4.4520
     6.6226   7.2711   7.4584   9.3112   9.3342  12.0119  13.0917  16.8758
    17.0888  18.4353  20.3669

     occupation numbers 
     1.0000   1.0000   1.0000   1.0000   1.0000   1.0000   1.0000   1.0000
     1.0000   1.0000   1.0000   1.0000   1.0000   1.0000   1.0000   1.0000
     1.0000   1.0649   1.0422   0.0000   0.0000   0.0000   0.0000   0.0000
     0.0000   0.0000   0.0000

          k = 0.0000-0.1443 0.1395 (  2651 PWs)   bands (ev):

   -87.5861 -50.8296 -50.8232 -50.8187 -45.9474 -17.8355 -17.8012 -17.7337
   -11.7554 -10.1205   1.8354   2.2408   2.6564   4.6519   4.9765   5.3561
     6.6975   6.9269   7.3415   7.9818   9.6114   9.9412  12.7536  16.8779
    18.4918  21.5149  22.3947

     occupation numbers 
     1.0000   1.0000   1.0000   1.0000   1.0000   1.0000   1.0000   1.0000
     1.0000   1.0000   1.0000   1.0000   1.0000   1.0000   1.0000   1.0000
     1.0000   1.0014   1.0822   0.0464   0.0000   0.0000   0.0000   0.0000
     0.0000   0.0000   0.0000

          k = 0.0000-0.2887 0.1395 (  2636 PWs)   bands (ev):

   -87.5842 -50.8499 -50.8280 -50.8156 -45.9349 -17.9391 -17.8238 -17.7161
   -11.3081 -10.1212   1.8666   2.3330   2.9007   3.4451   4.7524   5.4497
     6.7825   7.2211   7.3736   8.3105   9.2191   9.8148  13.8569  17.5797
    18.3638  19.4477  21.8597

     occupation numbers 
     1.0000   1.0000   1.0000   1.0000   1.0000   1.0000   1.0000   1.0000
     1.0000   1.0000   1.0000   1.0000   1.0000   1.0000   1.0000   1.0000
     1.0001   1.0478   1.0828   0.0002   0.0000   0.0000   0.0000   0.0000
     0.0000   0.0000   0.0000

          k = 0.0000-0.4330 0.1395 (  2641 PWs)   bands (ev):

   -87.5824 -50.8702 -50.8329 -50.8126 -45.9224 -18.0411 -17.8463 -17.6988
   -10.7683 -10.1739   1.3916   2.3575   3.0976   3.4113   4.4745   5.1059
     6.7654   7.1028   7.2851   8.9964   9.8474   9.8582  14.6342  15.3187
    18.5183  19.2193  20.5243

     occupation numbers 
     1.0000   1.0000   1.0000   1.0000   1.0000   1.0000   1.0000   1.0000
     1.0000   1.0000   1.0000   1.0000   1.0000   1.0000   1.0000   1.0000
     1.0001   1.0161   1.0694   0.0000   0.0000   0.0000   0.0000   0.0000
     0.0000   0.0000   0.0000

          k =-0.1250-0.3608 0.1395 (  2633 PWs)   bands (ev):

   -87.5829 -50.8612 -50.8345 -50.8135 -45.9260 -17.9959 -17.8554 -17.7037
   -10.9538 -10.1365   1.7919   2.3052   3.0093   3.3235   4.1481   5.4112
     6.9140   7.2450   7.3103   8.7296   9.3167   9.8636  14.6050  16.2275
    18.8630  19.7360  20.4714

     occupation numbers 
     1.0000   1.0000   1.0000   1.0000   1.0000   1.0000   1.0000   1.0000
     1.0000   1.0000   1.0000   1.0000   1.0000   1.0000   1.0000   1.0000
     1.0012   1.0560   1.0764   0.0000   0.0000   0.0000   0.0000   0.0000
     0.0000   0.0000   0.0000

          k =-0.1250-0.5052 0.1395 (  2647 PWs)   bands (ev):

   -87.5817 -50.8741 -50.8395 -50.8114 -45.9172 -18.0595 -17.8796 -17.6915
   -10.4982 -10.2281   1.2977   2.2820   3.2460   3.5919   4.0307   4.8332
     6.7455   7.0497   7.3589   9.2983   9.5996  10.8330  13.6130  16.0193
    17.9276  19.2811  20.4073

     occupation numbers 
     1.0000   1.0000   1.0000   1.0000   1.0000   1.0000   1.0000   1.0000
     1.0000   1.0000   1.0000   1.0000   1.0000   1.0000   1.0000   1.0000
     1.0000   1.0086   1.0833   0.0000   0.0000   0.0000   0.0000   0.0000
     0.0000   0.0000   0.0000

 ------ SPIN DOWN ----------


          k = 0.0000 0.0000 0.0000 (  2625 PWs)   bands (ev):

   -87.3615 -50.6151 -50.6151 -50.5724 -45.9584 -17.7984 -17.7984 -17.7446
   -11.9141 -10.0966   1.5147   2.6131   2.6131   4.9120   5.9217   5.9217
     6.3161   6.6769   6.6769   8.0593  10.1348  10.1348  13.1319  15.3599
    18.1339  22.3757  24.5916

     occupation numbers 
     1.0000   1.0000   1.0000   1.0000   1.0000   1.0000   1.0000   1.0000
     1.0000   1.0000   1.0000   1.0000   1.0000   1.0000   1.0000   1.0000
     1.0000   1.0000   1.0000   0.0168   0.0000   0.0000   0.0000   0.0000
     0.0000   0.0000   0.0000

          k = 0.0000 0.0000 0.1395 (  2666 PWs)   bands (ev):

   -87.3615 -50.6154 -50.6154 -50.5725 -45.9585 -17.7989 -17.7989 -17.7453
   -11.9070 -10.1071   1.6801   2.6129   2.6129   4.1935   5.9220   5.9220
     6.6769   6.6769   7.2364   7.9624  10.1342  10.1342  12.2234  16.3562
    18.0262  22.1412  24.6559

     occupation numbers 
     1.0000   1.0000   1.0000   1.0000   1.0000   1.0000   1.0000   1.0000
     1.0000   1.0000   1.0000   1.0000   1.0000   1.0000   1.0000   1.0000
     1.0000   1.0000   1.0530   0.0583   0.0000   0.0000   0.0000   0.0000
     0.0000   0.0000   0.0000

          k = 0.0000 0.1443 0.0000 (  2643 PWs)   bands (ev):

   -87.3607 -50.6237 -50.6173 -50.5712 -45.9533 -17.8426 -17.8081 -17.7376
   -11.7432 -10.0923   1.7462   2.3347   2.7138   4.8602   5.3359   5.4138
     6.6563   6.9429   7.0998   8.1834   9.6548  10.0327  13.4237  15.9906
    18.8054  21.4259  22.3162

     occupation numbers 
     1.0000   1.0000   1.0000   1.0000   1.0000   1.0000   1.0000   1.0000
     1.0000   1.0000   1.0000   1.0000   1.0000   1.0000   1.0000   1.0000
     1.0000   1.0018   1.0156   0.0024   0.0000   0.0000   0.0000   0.0000
     0.0000   0.0000   0.0000

          k = 0.0000 0.1443 0.1395 (  2651 PWs)   bands (ev):

   -87.3607 -50.6238 -50.6173 -50.5713 -45.9533 -17.8427 -17.8081 -17.7380
   -11.7367 -10.1014   1.8849   2.2965   2.7137   4.7454   4.9141   5.4140
     6.8942   7.0999   7.4280   8.0087   9.7974  10.0326  12.6597  16.9287
    18.5004  21.4517  22.3227

     occupation numbers 
     1.0000   1.0000   1.0000   1.0000   1.0000   1.0000   1.0000   1.0000
     1.0000   1.0000   1.0000   1.0000   1.0000   1.0000   1.0000   1.0000
     1.0008   1.0156   1.0652   0.0332   0.0000   0.0000   0.0000   0.0000
     0.0000   0.0000   0.0000

          k = 0.0000 0.2887 0.0000 (  2620 PWs)   bands (ev):

   -87.3588 -50.6442 -50.6221 -50.5681 -45.9407 -17.9471 -17.8306 -17.7200
   -11.2945 -10.0953   1.9488   2.3207   2.9536   3.4272   4.8076   5.6743
     7.0388   7.3836   7.4093   8.2865   9.2341   9.9031  13.9924  17.3357
    17.9397  20.2447  21.3745

     occupation numbers 
     1.0000   1.0000   1.0000   1.0000   1.0000   1.0000   1.0000   1.0000
     1.0000   1.0000   1.0000   1.0000   1.0000   1.0000   1.0000   1.0000
     1.0074   1.0815   1.0744   0.0003   0.0000   0.0000   0.0000   0.0000
     0.0000   0.0000   0.0000

          k = 0.0000 0.2887 0.1395 (  2636 PWs)   bands (ev):

   -87.3589 -50.6443 -50.6222 -50.5681 -45.9407 -17.9472 -17.8308 -17.7203
   -11.2898 -10.1011   1.8896   2.4105   2.9536   3.4757   4.8075   5.5022
     6.9532   7.4092   7.7272   7.8463   9.6992   9.9031  13.5597  17.5662
    18.2886  19.7357  21.5690

     occupation numbers 
     1.0000   1.0000   1.0000   1.0000   1.0000   1.0000   1.0000   1.0000
     1.0000   1.0000   1.0000   1.0000   1.0000   1.0000   1.0000   1.0000
     1.0022   1.0744   0.4480   0.1888   0.0000   0.0000   0.0000   0.0000
     0.0000   0.0000   0.0000

          k = 0.0000 0.4330 0.0000 (  2652 PWs)   bands (ev):

   -87.3571 -50.6649 -50.6272 -50.5651 -45.9282 -18.0501 -17.8536 -17.7028
   -10.7528 -10.1505   1.4486   2.4039   3.1509   3.3887   4.5076   5.1558
     6.9814   7.3158   7.5381   8.9797   9.9373   9.9563  14.4834  15.0205
    18.5713  19.1922  21.0456

     occupation numbers 
     1.0000   1.0000   1.0000   1.0000   1.0000   1.0000   1.0000   1.0000
     1.0000   1.0000   1.0000   1.0000   1.0000   1.0000   1.0000   1.0000
     1.0033   1.0777   0.9291   0.0000   0.0000   0.0000   0.0000   0.0000
     0.0000   0.0000   0.0000

          k = 0.0000 0.4330 0.1395 (  2641 PWs)   bands (ev):

   -87.3570 -50.6648 -50.6271 -50.5651 -45.9282 -18.0500 -17.8534 -17.7029
   -10.7507 -10.1527   1.4329   2.3877   3.1512   3.4397   4.5072   5.1874
     6.9609   7.3158   7.5499   8.6829   9.9375  10.2842  14.4450  14.8284
    18.9801  19.4868  20.5376

     occupation numbers 
     1.0000   1.0000   1.0000   1.0000   1.0000   1.0000   1.0000   1.0000
     1.0000   1.0000   1.0000   1.0000   1.0000   1.0000   1.0000   1.0000
     1.0025   1.0777   0.9057   0.0000   0.0000   0.0000   0.0000   0.0000
     0.0000   0.0000   0.0000

          k = 0.0000-0.5774 0.0000 (  2642 PWs)   bands (ev):

   -87.3563 -50.6734 -50.6292 -50.5637 -45.9230 -18.0922 -17.8628 -17.6953
   -10.3778 -10.3087   1.0559   2.5039   3.1978   3.7107   4.4712   4.7519
     6.8532   7.1942   7.4781   9.4074   9.9879  11.2164  12.6951  15.6388
    17.3237  19.5006  20.8741

     occupation numbers 
     1.0000   1.0000   1.0000   1.0000   1.0000   1.0000   1.0000   1.0000
     1.0000   1.0000   1.0000   1.0000   1.0000   1.0000   1.0000   1.0000
     1.0004   1.0390   1.0215   0.0000   0.0000   0.0000   0.0000   0.0000
     0.0000   0.0000   0.0000

          k = 0.0000-0.5774 0.1395 (  2638 PWs)   bands (ev):

   -87.3563 -50.6734 -50.6291 -50.5638 -45.9230 -18.0920 -17.8627 -17.6955
   -10.3759 -10.3104   1.0486   2.4885   3.1981   3.7143   4.4709   4.8090
     6.8447   7.1942   7.4728   9.4179   9.9879  11.0820  12.6478  16.0024
    17.3702  19.5755  20.4870

     occupation numbers 
     1.0000   1.0000   1.0000   1.0000   1.0000   1.0000   1.0000   1.0000
     1.0000   1.0000   1.0000   1.0000   1.0000   1.0000   1.0000   1.0000
     1.0003   1.0390   1.0276   0.0000   0.0000   0.0000   0.0000   0.0000
     0.0000   0.0000   0.0000

          k = 0.1250 0.2165 0.0000 (  2659 PWs)   bands (ev):

   -87.3594 -50.6375 -50.6218 -50.5692 -45.9445 -17.9121 -17.8292 -17.7256
   -11.4333 -10.0909   2.0777   2.1527   2.8334   3.9202   4.7096   5.7016
     7.0864   7.1972   7.3928   8.2761   9.2407   9.8513  13.8395  17.0373
    18.9229  19.9507  21.6801

     occupation numbers 
     1.0000   1.0000   1.0000   1.0000   1.0000   1.0000   1.0000   1.0000
     1.0000   1.0000   1.0000   1.0000   1.0000   1.0000   1.0000   1.0000
     1.0134   1.0399   1.0796   0.0004   0.0000   0.0000   0.0000   0.0000
     0.0000   0.0000   0.0000

          k = 0.1250 0.2165 0.1395 (  2634 PWs)   bands (ev):

   -87.3594 -50.6373 -50.6217 -50.5690 -45.9444 -17.9117 -17.8291 -17.7254
   -11.4278 -10.0979   2.0138   2.2684   2.8358   3.9616   4.7086   5.3930
     7.0875   7.2240   7.6661   8.1033   9.5210   9.8068  13.4261  17.7134
    18.8982  19.4386  21.7787

     occupation numbers 
     1.0000   1.0000   1.0000   1.0000   1.0000   1.0000   1.0000   1.0000
     1.0000   1.0000   1.0000   1.0000   1.0000   1.0000   1.0000   1.0000
     1.0136   1.0488   0.6144   0.0088   0.0000   0.0000   0.0000   0.0000
     0.0000   0.0000   0.0000

          k = 0.1250 0.3608 0.0000 (  2630 PWs)   bands (ev):

   -87.3576 -50.6557 -50.6286 -50.5660 -45.9318 -18.0043 -17.8625 -17.7078
   -10.9389 -10.1124   1.8654   2.3492   3.0337   3.2998   4.1997   5.4904
     7.1222   7.4498   7.5958   8.6940   9.3662   9.8937  14.4935  16.1405
    18.4846  19.9523  20.9958

     occupation numbers 
     1.0000   1.0000   1.0000   1.0000   1.0000   1.0000   1.0000   1.0000
     1.0000   1.0000   1.0000   1.0000   1.0000   1.0000   1.0000   1.0000
     1.0199   1.0498   0.8018   0.0000   0.0000   0.0000   0.0000   0.0000
     0.0000   0.0000   0.0000

          k = 0.1250 0.3608 0.1395 (  2633 PWs)   bands (ev):

   -87.3576 -50.6557 -50.6287 -50.5659 -45.9319 -18.0044 -17.8626 -17.7079
   -10.9355 -10.1162   1.8293   2.3486   3.0699   3.3473   4.1996   5.4689
     7.1095   7.4226   7.5945   8.4343   9.6285   9.9765  14.3861  16.0435
    18.8692  20.0769  20.6409

     occupation numbers 
     1.0000   1.0000   1.0000   1.0000   1.0000   1.0000   1.0000   1.0000
     1.0000   1.0000   1.0000   1.0000   1.0000   1.0000   1.0000   1.0000
     1.0174   1.0682   0.8050   0.0000   0.0000   0.0000   0.0000   0.0000
     0.0000   0.0000   0.0000

          k = 0.1250 0.5052 0.0000 (  2636 PWs)   bands (ev):

   -87.3563 -50.6687 -50.6338 -50.5637 -45.9230 -18.0683 -17.8869 -17.6954
   -10.4814 -10.2061   1.3451   2.3235   3.2958   3.6156   4.0600   4.8492
     6.9879   7.2698   7.5807   9.3185   9.6935  10.9081  13.5321  15.5932
    17.9221  19.2795  20.7553

     occupation numbers 
     1.0000   1.0000   1.0000   1.0000   1.0000   1.0000   1.0000   1.0000
     1.0000   1.0000   1.0000   1.0000   1.0000   1.0000   1.0000   1.0000
     1.0037   1.0645   0.8380   0.0000   0.0000   0.0000   0.0000   0.0000
     0.0000   0.0000   0.0000

          k = 0.1250 0.5052 0.1395 (  2647 PWs)   bands (ev):

   -87.3563 -50.6688 -50.6338 -50.5638 -45.9230 -18.0685 -17.8870 -17.6956
   -10.4803 -10.2070   1.3377   2.3104   3.2918   3.6320   4.0604   4.8881
     6.9805   7.2722   7.5692   9.2667   9.7280  10.9044  13.4285  15.6889
    18.1789  19.3846  20.7332

     occupation numbers 
     1.0000   1.0000   1.0000   1.0000   1.0000   1.0000   1.0000   1.0000
     1.0000   1.0000   1.0000   1.0000   1.0000   1.0000   1.0000   1.0000
     1.0033   1.0652   0.8644   0.0000   0.0000   0.0000   0.0000   0.0000
     0.0000   0.0000   0.0000

          k = 0.2500 0.4330 0.0000 (  2639 PWs)   bands (ev):

   -87.3563 -50.6623 -50.6402 -50.5638 -45.9230 -18.0354 -17.9203 -17.6955
   -10.5358 -10.1527   1.9151   2.0301   3.0137   3.6442   3.7755   4.9627
     7.0860   7.3227   7.7128   9.1790   9.4419  10.7389  14.3988  15.5475
    18.0173  19.5864  20.2356

     occupation numbers 
     1.0000   1.0000   1.0000   1.0000   1.0000   1.0000   1.0000   1.0000
     1.0000   1.0000   1.0000   1.0000   1.0000   1.0000   1.0000   1.0000
     1.0133   1.0792   0.4862   0.0000   0.0000   0.0000   0.0000   0.0000
     0.0000   0.0000   0.0000

          k = 0.2500 0.4330 0.1395 (  2630 PWs)   bands (ev):

   -87.3563 -50.6622 -50.6401 -50.5638 -45.9230 -18.0352 -17.9202 -17.6956
   -10.5337 -10.1548   1.9121   2.0094   3.0157   3.6903   3.7691   4.9613
     7.0876   7.3266   7.6748   9.2668   9.4096  10.6564  14.3918  15.7034
    17.9605  19.5358  20.3569

     occupation numbers 
     1.0000   1.0000   1.0000   1.0000   1.0000   1.0000   1.0000   1.0000
     1.0000   1.0000   1.0000   1.0000   1.0000   1.0000   1.0000   1.0000
     1.0136   1.0799   0.5905   0.0000   0.0000   0.0000   0.0000   0.0000
     0.0000   0.0000   0.0000

          k = 0.2500 0.5774 0.0000 (  2630 PWs)   bands (ev):

   -87.3557 -50.6628 -50.6471 -50.5628 -45.9193 -18.0365 -17.9555 -17.6903
   -10.2988 -10.2309   1.7523   2.1527   2.7802   3.7830   4.0421   4.4708
     6.8896   7.4777   7.6669   9.3618   9.4112  11.9545  13.0580  16.6746
    17.0562  18.4236  20.5749

     occupation numbers 
     1.0000   1.0000   1.0000   1.0000   1.0000   1.0000   1.0000   1.0000
     1.0000   1.0000   1.0000   1.0000   1.0000   1.0000   1.0000   1.0000
     1.0008   1.0220   0.6123   0.0000   0.0000   0.0000   0.0000   0.0000
     0.0000   0.0000   0.0000

          k = 0.2500 0.5774 0.1395 (  2649 PWs)   bands (ev):

   -87.3558 -50.6628 -50.6472 -50.5630 -45.9193 -18.0367 -17.9557 -17.6907
   -10.2980 -10.2315   1.7465   2.1462   2.7805   3.7855   4.0466   4.4791
     6.8911   7.4785   7.6548   9.4092   9.4346  11.8840  12.9755  16.8378
    17.0703  18.4152  20.3702

     occupation numbers 
     1.0000   1.0000   1.0000   1.0000   1.0000   1.0000   1.0000   1.0000
     1.0000   1.0000   1.0000   1.0000   1.0000   1.0000   1.0000   1.0000
     1.0008   1.0210   0.6458   0.0000   0.0000   0.0000   0.0000   0.0000
     0.0000   0.0000   0.0000

          k = 0.0000-0.1443 0.1395 (  2651 PWs)   bands (ev):

   -87.3607 -50.6238 -50.6173 -50.5713 -45.9533 -17.8427 -17.8081 -17.7380
   -11.7367 -10.1015   1.8914   2.2914   2.7136   4.6572   5.0118   5.4141
     6.8641   7.1000   7.4283   8.0750   9.7031  10.0324  12.7355  16.8872
    18.5074  21.4083  22.3753

     occupation numbers 
     1.0000   1.0000   1.0000   1.0000   1.0000   1.0000   1.0000   1.0000
     1.0000   1.0000   1.0000   1.0000   1.0000   1.0000   1.0000   1.0000
     1.0005   1.0156   1.0650   0.0134   0.0000   0.0000   0.0000   0.0000
     0.0000   0.0000   0.0000

          k = 0.0000-0.2887 0.1395 (  2636 PWs)   bands (ev):

   -87.3589 -50.6443 -50.6222 -50.5681 -45.9407 -17.9472 -17.8308 -17.7203
   -11.2893 -10.1018   1.9103   2.3831   2.9534   3.4901   4.8077   5.4630
     6.9579   7.4093   7.5530   8.3259   9.2833   9.9028  13.8332  17.5189
    18.3141  19.4679  21.8620

     occupation numbers 
     1.0000   1.0000   1.0000   1.0000   1.0000   1.0000   1.0000   1.0000
     1.0000   1.0000   1.0000   1.0000   1.0000   1.0000   1.0000   1.0000
     1.0023   1.0743   0.8994   0.0002   0.0000   0.0000   0.0000   0.0000
     0.0000   0.0000   0.0000

          k = 0.0000-0.4330 0.1395 (  2641 PWs)   bands (ev):

   -87.3570 -50.6648 -50.6271 -50.5651 -45.9282 -18.0500 -17.8534 -17.7029
   -10.7494 -10.1542   1.4322   2.3831   3.1510   3.4715   4.5075   5.1350
     6.9687   7.3158   7.5095   9.0603   9.8003   9.9374  14.5400  15.2745
    18.5183  19.2083  20.5558

     occupation numbers 
     1.0000   1.0000   1.0000   1.0000   1.0000   1.0000   1.0000   1.0000
     1.0000   1.0000   1.0000   1.0000   1.0000   1.0000   1.0000   1.0000
     1.0028   1.0777   0.9787   0.0000   0.0000   0.0000   0.0000   0.0000
     0.0000   0.0000   0.0000

          k =-0.1250-0.3608 0.1395 (  2633 PWs)   bands (ev):

   -87.3576 -50.6557 -50.6287 -50.5659 -45.9319 -18.0044 -17.8626 -17.7079
   -10.9349 -10.1168   1.8336   2.3406   3.0616   3.3725   4.1976   5.4371
     7.1277   7.4499   7.5051   8.7361   9.3860   9.8970  14.5744  16.1117
    18.8540  19.7443  20.4743

     occupation numbers 
     1.0000   1.0000   1.0000   1.0000   1.0000   1.0000   1.0000   1.0000
     1.0000   1.0000   1.0000   1.0000   1.0000   1.0000   1.0000   1.0000
     1.0211   1.0497   0.9854   0.0000   0.0000   0.0000   0.0000   0.0000
     0.0000   0.0000   0.0000

          k =-0.1250-0.5052 0.1395 (  2647 PWs)   bands (ev):

   -87.3563 -50.6688 -50.6338 -50.5638 -45.9230 -18.0685 -17.8870 -17.6956
   -10.4791 -10.2083   1.3360   2.3113   3.2909   3.6455   4.0669   4.8621
     6.9860   7.2711   7.5584   9.4019   9.6873  10.7264  13.5059  15.9825
    17.9168  19.2605  20.4170

     occupation numbers 
     1.0000   1.0000   1.0000   1.0000   1.0000   1.0000   1.0000   1.0000
     1.0000   1.0000   1.0000   1.0000   1.0000   1.0000   1.0000   1.0000
     1.0036   1.0649   0.8880   0.0000   0.0000   0.0000   0.0000   0.0000
     0.0000   0.0000   0.0000

     the Fermi energy is     7.7456 ev

!    total energy              =    -569.26930574 Ry
     total all-electron energy =     -3412.759861 Ry
     estimated scf accuracy    <          6.8E-09 Ry
     smearing contrib. (-TS)   =       0.00604447 Ry
     internal energy E=F+TS    =    -569.27535021 Ry

     The total energy is F=E-TS. E is the sum of the following terms:
     one-electron contribution =    -416.71430614 Ry
     hartree contribution      =     226.17695047 Ry
     xc contribution           =     -60.15301072 Ry
     ewald contribution        =    -196.65088792 Ry
     one-center paw contrib.   =    -121.93409589 Ry
      -> PAW hartree energy AE =     344.20064631 Ry
      -> PAW hartree energy PS =    -344.18629761 Ry
      -> PAW xc energy AE      =    -179.06909034 Ry
      -> PAW xc energy PS      =      57.12064575 Ry
      -> total E_H with PAW    =     226.19129917 Ry
      -> total E_XC with PAW   =    -182.10145531 Ry

     total magnetization       =     0.19 Bohr mag/cell
     absolute magnetization    =     0.26 Bohr mag/cell

     convergence has been achieved in  28 iterations

     Forces acting on atoms (cartesian axes, Ry/au):

     atom    1 type  1   force =    -0.00000000   -0.00000000   -0.00167645
     atom    2 type  2   force =    -0.00000000   -0.00000000    0.01321555
     atom    3 type  2   force =     0.00000000    0.00000000   -0.01907464
     atom    4 type  3   force =     0.00000000    0.00000000    0.00753555
     The non-local contrib.  to forces
     atom    1 type  1   force =     0.00000000    0.00000000    0.00899385
     atom    2 type  2   force =    -0.00000000   -0.00000000   -0.73387231
     atom    3 type  2   force =     0.00000000    0.00000000    0.71226311
     atom    4 type  3   force =     0.00000000    0.00000000    0.09035226
     The ionic contribution  to forces
     atom    1 type  1   force =    -0.00000000    0.00000000   -0.00000000
     atom    2 type  2   force =     0.00000000   -0.00000000   25.34628566
     atom    3 type  2   force =    -0.00000000    0.00000000  -25.79816724
     atom    4 type  3   force =     0.00000000   -0.00000000    0.45188157
     The local contribution  to forces
     atom    1 type  1   force =    -0.00000000   -0.00000000   -0.01050048
     atom    2 type  2   force =     0.00000001   -0.00000001  -24.60540608
     atom    3 type  2   force =    -0.00000001    0.00000001   25.07267471
     atom    4 type  3   force =     0.00000006   -0.00000004   -0.53468143
     The core correction contribution to forces
     atom    1 type  1   force =    -0.00000000    0.00000000   -0.00006413
     atom    2 type  2   force =    -0.00000000    0.00000000    0.00617786
     atom    3 type  2   force =     0.00000000   -0.00000000   -0.00580253
     atom    4 type  3   force =     0.00000000   -0.00000000   -0.00005266
     The Hubbard contrib.    to forces
     atom    1 type  1   force =     0.00000000    0.00000000    0.00000000
     atom    2 type  2   force =     0.00000000    0.00000000    0.00000000
     atom    3 type  2   force =     0.00000000    0.00000000    0.00000000
     atom    4 type  3   force =     0.00000000    0.00000000    0.00000000
     The SCF correction term to forces
     atom    1 type  1   force =    -0.00000000   -0.00000000   -0.00011340
     atom    2 type  2   force =     0.00000000   -0.00000000    0.00002271
     atom    3 type  2   force =    -0.00000000    0.00000000   -0.00005040
     atom    4 type  3   force =     0.00000000   -0.00000000    0.00002809

     Total force =     0.024456     Total SCF correction =     0.000129

     Writing all to output data dir ./out/pw.save/ :
     XML data file, charge density, pseudopotentials, collected wavefunctions
 
     init_run     :     11.20s CPU      3.11s WALL (       1 calls)
     electrons    :    127.86s CPU     35.30s WALL (       1 calls)
     forces       :      0.56s CPU      0.54s WALL (       1 calls)

     Called by init_run:
     wfcinit      :      0.30s CPU      0.36s WALL (       1 calls)
     wfcinit:atom :      0.04s CPU      0.04s WALL (      50 calls)
     wfcinit:wfcr :      0.20s CPU      0.24s WALL (      50 calls)
     potinit      :     10.33s CPU      2.13s WALL (       1 calls)
     hinit0       :      0.48s CPU      0.48s WALL (       1 calls)

     Called by electrons:
     c_bands      :     16.96s CPU     17.04s WALL (      28 calls)
     sum_band     :      3.03s CPU      3.01s WALL (      28 calls)
     v_of_rho     :      0.46s CPU      0.21s WALL (      29 calls)
     v_h          :      0.32s CPU      0.04s WALL (      29 calls)
     v_xc         :      0.15s CPU      0.17s WALL (      30 calls)
     newd         :      0.68s CPU      0.51s WALL (      29 calls)
                                        0.51s GPU  (      29 calls)
     PAW_pot      :    109.34s CPU     14.54s WALL (      29 calls)
     mix_rho      :      0.43s CPU      0.45s WALL (      28 calls)

     Called by c_bands:
     init_us_2    :      1.16s CPU      1.13s WALL (    2900 calls)
     cegterg      :     14.79s CPU     14.93s WALL (    1400 calls)

     Called by sum_band:
     sum_band:wei :      0.04s CPU      0.04s WALL (      28 calls)
                                        0.04s GPU  (      28 calls)
     sum_band:loo :      1.91s CPU      1.87s WALL (      28 calls)
                                        1.87s GPU  (      28 calls)
     sum_band:buf :      0.20s CPU      0.23s WALL (    1400 calls)
                                        0.21s GPU  (    1400 calls)
     sum_band:ini :      0.55s CPU      0.56s WALL (    1400 calls)
                                        0.54s GPU  (    1400 calls)
     sum_band:cal :      0.05s CPU      0.08s WALL (    1400 calls)
                                        0.07s GPU  (    1400 calls)
     sum_band:bec :      0.30s CPU      0.32s WALL (    1400 calls)
                                        0.30s GPU  (    1400 calls)
     addusdens    :      0.91s CPU      0.92s WALL (      28 calls)
                                        0.92s GPU  (      28 calls)
     addusd:skk   :      0.00s CPU      0.01s WALL (      84 calls)
                                        0.00s GPU  (      84 calls)

     Called by *egterg:
     cdiaghg      :      5.05s CPU      5.22s WALL (    5933 calls)
                                        5.15s GPU  (    5933 calls)
     cegterg:over :      0.98s CPU      1.02s WALL (    4533 calls)
     cegterg:upda :      0.87s CPU      0.87s WALL (    4533 calls)
     cegterg:last :      0.16s CPU      0.15s WALL (    2587 calls)
     h_psi        :      5.42s CPU      5.51s WALL (    5983 calls)
                                        5.44s GPU  (    5983 calls)
     s_psi        :      0.90s CPU      0.95s WALL (    5983 calls)
     g_psi        :      0.02s CPU      0.11s WALL (    4533 calls)
                                        0.05s GPU  (    4533 calls)

     Called by h_psi:
     h_psi:calbec :      0.18s CPU      0.33s WALL (    5983 calls)
                                        0.25s GPU  (    5983 calls)
     vloc_psi     :      3.80s CPU      3.81s WALL (    5983 calls)
                                        3.73s GPU  (    5983 calls)
     add_vuspsi   :      0.81s CPU      0.97s WALL (    5983 calls)
                                        0.89s GPU  (    5983 calls)

     General routines
     calbec       :      0.20s CPU      0.23s WALL (    7583 calls)
     fft          :      3.09s CPU      0.90s WALL (     738 calls)
                                        0.07s GPU  (     680 calls)
     ffts         :      3.89s CPU      0.73s WALL (     114 calls)
                                        0.00s GPU  (      56 calls)
     fftw         :      0.37s CPU      1.28s WALL (   20554 calls)
                                        1.04s GPU  (   20554 calls)
     interpolate  :      7.13s CPU      1.58s WALL (      58 calls)
 
     Parallel routines

     PAW routines
     PAW_pot      :    109.34s CPU     14.54s WALL (      29 calls)
     PAW_symme    :      0.03s CPU      0.01s WALL (      57 calls)
 
     PWSCF        :   2m20.47s CPU     39.46s WALL

 
   This run was terminated on:   2:14:50  12Jul2026            

=------------------------------------------------------------------------------=
   JOB DONE.
=------------------------------------------------------------------------------=
Warning: ieee_divide_by_zero is signaling
Warning: ieee_inexact is signaling
FORTRAN STOP
