
     Program PWSCF v.7.3.1 starts on 12Jul2026 at  5:37:19 

     This program is part of the open-source Quantum ESPRESSO suite
     for quantum simulation of materials; please cite
         "P. Giannozzi et al., J. Phys.:Condens. Matter 21 395502 (2009);
         "P. Giannozzi et al., J. Phys.:Condens. Matter 29 465901 (2017);
         "P. Giannozzi et al., J. Chem. Phys. 152 154105 (2020);
          URL http://www.quantum-espresso.org", 
     in publications or presentations arising from this work. More details at
     http://www.quantum-espresso.org/quote

     Parallel version (MPI & OpenMP), running on      14 processor cores
     Number of MPI processes:                 1
     Threads/MPI process:                    14

     MPI processes distributed on     1 nodes
     1356053 MiB available memory on the printing compute node when the environment starts
 
     Reading input from pw.in

     Current dimensions of program PWSCF are:
     Max number of different atomic species (ntypx) = 10
     Max number of k-points (npk) =  40000
     Max angular momentum in pseudopotentials (lmaxx) =  4
     file Co.pbe-spn-kjpaw_psl.0.3.1.UPF: wavefunction(s)  3P 3D renormalized
     file O.pbe-n-kjpaw_psl.1.0.0.UPF: wavefunction(s)  2S 2P renormalized
     file K.pbe-spn-kjpaw_psl.1.0.0.UPF: wavefunction(s)  3S renormalized
 
     Subspace diagonalization in iterative solution of the eigenvalue problem:
     a serial algorithm will be used

 
     G-vector sticks info
     --------------------
     sticks:   dense  smooth     PW     G-vecs:    dense   smooth      PW
     Sum        1003     499    151                60133    21263    3497
 
     Using Slab Decomposition
 


     bravais-lattice index     =            4
     lattice parameter (alat)  =       5.4802  a.u.
     unit-cell volume          =     339.1348 (a.u.)^3
     number of atoms/cell      =            4
     number of atomic types    =            3
     number of electrons       =        38.00
     number of Kohn-Sham states=           27
     kinetic-energy cutoff     =      60.0000  Ry
     charge density cutoff     =     480.0000  Ry
     scf convergence threshold =      1.0E-07
     mixing beta               =       0.3000
     number of iterations used =            8  local-TF  mixing
     Exchange-correlation= SLA  PW   PBX  PBC
                           (   1   4   3   4   0   0   0)

     GPU acceleration is ACTIVE.  1 visible GPUs per MPI rank
     GPU-aware MPI enabled


     GPU used by master process:

        Device Number: 0
        Device name: NVIDIA A100-SXM4-80GB
        Compute capability : 80
        Ratio of single to double precision performance  : 2
        Memory Clock Rate (KHz): 1593000
        Memory Bus Width (bits): 5120
        Peak Memory Bandwidth (GB/s): ******

     celldm(1)=   5.480206  celldm(2)=   0.000000  celldm(3)=   2.379310
     celldm(4)=   0.000000  celldm(5)=   0.000000  celldm(6)=   0.000000

     crystal axes: (cart. coord. in units of alat)
               a(1) = (   1.000000   0.000000   0.000000 )  
               a(2) = (  -0.500000   0.866025   0.000000 )  
               a(3) = (   0.000000   0.000000   2.379310 )  

     reciprocal axes: (cart. coord. in units 2 pi/alat)
               b(1) = (  1.000000  0.577350 -0.000000 )  
               b(2) = (  0.000000  1.154701  0.000000 )  
               b(3) = (  0.000000 -0.000000  0.420290 )  


     PseudoPot. # 1 for Co read from file:
     ../../pseudo/Co.pbe-spn-kjpaw_psl.0.3.1.UPF
     MD5 check sum: 3c0a43779828c046024e4f3be63f8e67
     Pseudo is Projector augmented-wave + core cor, Zval = 17.0
     Generated using &quot;atomic&quot; code by A. Dal Corso  v.6.2.2
     Shape of augmentation charge: PSQ
     Using radial grid of 1193 points,  6 beta functions with: 
                l(1) =   0
                l(2) =   0
                l(3) =   1
                l(4) =   1
                l(5) =   2
                l(6) =   2
     Q(r) pseudized with 0 coefficients 


     PseudoPot. # 2 for O  read from file:
     ../../pseudo/O.pbe-n-kjpaw_psl.1.0.0.UPF
     MD5 check sum: e99d9cef9b487d1ca56f5b95ecd0fd7a
     Pseudo is Projector augmented-wave + core cor, Zval =  6.0
     Generated using &quot;atomic&quot; code by A. Dal Corso  v.6.3
     Shape of augmentation charge: PSQ
     Using radial grid of 1095 points,  4 beta functions with: 
                l(1) =   0
                l(2) =   0
                l(3) =   1
                l(4) =   1
     Q(r) pseudized with 0 coefficients 


     PseudoPot. # 3 for K  read from file:
     ../../pseudo/K.pbe-spn-kjpaw_psl.1.0.0.UPF
     MD5 check sum: 34cc42130a09071ebe376fd42eb21491
     Pseudo is Projector augmented-wave + core cor, Zval =  9.0
     Generated using &quot;atomic&quot; code by A. Dal Corso  v.6.2.2
     Shape of augmentation charge: PSQ
     Using radial grid of 1165 points,  6 beta functions with: 
                l(1) =   0
                l(2) =   0
                l(3) =   1
                l(4) =   1
                l(5) =   2
                l(6) =   2
     Q(r) pseudized with 0 coefficients 


     atomic species   valence    mass     pseudopotential
     Co               17.00    58.93300     Co( 1.00)
     O                 6.00    15.99900     O ( 1.00)
     K                 9.00    39.09830     K ( 1.00)

     Starting magnetic structure 
     atomic species   magnetization
     Co              0.300
     O               0.000
     K               0.000

      6 Sym. Ops. (no inversion) found


                                    s                        frac. trans.

      isym =  1     identity                                     

 cryst.   s( 1) = (     1          0          0      )
                  (     0          1          0      )
                  (     0          0          1      )

 cart.    s( 1) = (  1.0000000  0.0000000  0.0000000 )
                  (  0.0000000  1.0000000  0.0000000 )
                  (  0.0000000  0.0000000  1.0000000 )


      isym =  2     120 deg rotation - cryst. axis [0,0,1]       

 cryst.   s( 2) = (     0          1          0      )
                  (    -1         -1          0      )
                  (     0          0          1      )

 cart.    s( 2) = ( -0.5000000 -0.8660254  0.0000000 )
                  (  0.8660254 -0.5000000  0.0000000 )
                  (  0.0000000  0.0000000  1.0000000 )


      isym =  3     120 deg rotation - cryst. axis [0,0,-1]      

 cryst.   s( 3) = (    -1         -1          0      )
                  (     1          0          0      )
                  (     0          0          1      )

 cart.    s( 3) = ( -0.5000000  0.8660254  0.0000000 )
                  ( -0.8660254 -0.5000000  0.0000000 )
                  (  0.0000000  0.0000000  1.0000000 )


      isym =  4     inv. 180 deg rotation - cart. axis [1,0,0]   

 cryst.   s( 4) = (    -1          0          0      )
                  (     1          1          0      )
                  (     0          0          1      )

 cart.    s( 4) = ( -1.0000000  0.0000000  0.0000000 )
                  (  0.0000000  1.0000000  0.0000000 )
                  (  0.0000000  0.0000000  1.0000000 )


      isym =  5     inv. 180 deg rotation - cryst. axis [0,1,0]  

 cryst.   s( 5) = (     1          1          0      )
                  (     0         -1          0      )
                  (     0          0          1      )

 cart.    s( 5) = (  0.5000000  0.8660254  0.0000000 )
                  (  0.8660254 -0.5000000  0.0000000 )
                  (  0.0000000  0.0000000  1.0000000 )


      isym =  6     inv. 180 deg rotation - cryst. axis [1,1,0]  

 cryst.   s( 6) = (     0         -1          0      )
                  (    -1          0          0      )
                  (     0          0          1      )

 cart.    s( 6) = (  0.5000000 -0.8660254  0.0000000 )
                  ( -0.8660254 -0.5000000  0.0000000 )
                  (  0.0000000  0.0000000  1.0000000 )


     point group C_3v (3m)  
     there are  3 classes
     the character table:

       E     2C3   3s_v 
A_1    1.00  1.00  1.00
A_2    1.00  1.00 -1.00
E      2.00 -1.00  0.00

     the symmetry operations in each class and the name of the first element:

     E        1
          identity                                               
     2C3      2    3
          120 deg rotation - cryst. axis [0,0,1]                 
     3s_v     4    5    6
          inv. 180 deg rotation - cart. axis [1,0,0]             

   Cartesian axes

     site n.     atom                  positions (alat units)
         1        Co     tau(   1) = (   0.0000000   0.0000000   0.0000000  )
         2        O      tau(   2) = (  -0.0000000   0.5773503   0.3310345  )
         3        O      tau(   3) = (   0.5000000   0.2886751   2.0482759  )
         4        K      tau(   4) = (   0.0000000   0.0000000   1.5344828  )

   Crystallographic axes

     site n.     atom                  positions (cryst. coord.)
         1        Co     tau(   1) = (  0.0000000  0.0000000  0.0000000  )
         2        O      tau(   2) = (  0.3333333  0.6666667  0.1391304  )
         3        O      tau(   3) = (  0.6666667  0.3333333  0.8608696  )
         4        K      tau(   4) = (  0.0000000  0.0000000  0.6449275  )

     number of k points=    25  Marzari-Vanderbilt smearing, width (Ry)=  0.0200
                       cart. coord. in units 2pi/alat
        k(    1) = (   0.0000000   0.0000000   0.0000000), wk =   0.0052083
        k(    2) = (   0.0000000   0.0000000   0.1400966), wk =   0.0104167
        k(    3) = (   0.0000000   0.1443376   0.0000000), wk =   0.0312500
        k(    4) = (   0.0000000   0.1443376   0.1400966), wk =   0.0312500
        k(    5) = (   0.0000000   0.2886751   0.0000000), wk =   0.0312500
        k(    6) = (   0.0000000   0.2886751   0.1400966), wk =   0.0312500
        k(    7) = (   0.0000000   0.4330127   0.0000000), wk =   0.0312500
        k(    8) = (   0.0000000   0.4330127   0.1400966), wk =   0.0312500
        k(    9) = (   0.0000000  -0.5773503   0.0000000), wk =   0.0156250
        k(   10) = (   0.0000000  -0.5773503   0.1400966), wk =   0.0312500
        k(   11) = (   0.1250000   0.2165064   0.0000000), wk =   0.0312500
        k(   12) = (   0.1250000   0.2165064   0.1400966), wk =   0.0625000
        k(   13) = (   0.1250000   0.3608439   0.0000000), wk =   0.0625000
        k(   14) = (   0.1250000   0.3608439   0.1400966), wk =   0.0625000
        k(   15) = (   0.1250000   0.5051815   0.0000000), wk =   0.0625000
        k(   16) = (   0.1250000   0.5051815   0.1400966), wk =   0.0625000
        k(   17) = (   0.2500000   0.4330127   0.0000000), wk =   0.0312500
        k(   18) = (   0.2500000   0.4330127   0.1400966), wk =   0.0625000
        k(   19) = (   0.2500000   0.5773503   0.0000000), wk =   0.0312500
        k(   20) = (   0.2500000   0.5773503   0.1400966), wk =   0.0625000
        k(   21) = (   0.0000000  -0.1443376   0.1400966), wk =   0.0312500
        k(   22) = (   0.0000000  -0.2886751   0.1400966), wk =   0.0312500
        k(   23) = (   0.0000000  -0.4330127   0.1400966), wk =   0.0312500
        k(   24) = (  -0.1250000  -0.3608439   0.1400966), wk =   0.0625000
        k(   25) = (  -0.1250000  -0.5051815   0.1400966), wk =   0.0625000

                       cryst. coord.
        k(    1) = (   0.0000000   0.0000000   0.0000000), wk =   0.0052083
        k(    2) = (   0.0000000   0.0000000   0.3333333), wk =   0.0104167
        k(    3) = (   0.0000000   0.1250000   0.0000000), wk =   0.0312500
        k(    4) = (   0.0000000   0.1250000   0.3333333), wk =   0.0312500
        k(    5) = (   0.0000000   0.2500000   0.0000000), wk =   0.0312500
        k(    6) = (   0.0000000   0.2500000   0.3333333), wk =   0.0312500
        k(    7) = (   0.0000000   0.3750000   0.0000000), wk =   0.0312500
        k(    8) = (   0.0000000   0.3750000   0.3333333), wk =   0.0312500
        k(    9) = (   0.0000000  -0.5000000   0.0000000), wk =   0.0156250
        k(   10) = (   0.0000000  -0.5000000   0.3333333), wk =   0.0312500
        k(   11) = (   0.1250000   0.1250000   0.0000000), wk =   0.0312500
        k(   12) = (   0.1250000   0.1250000   0.3333333), wk =   0.0625000
        k(   13) = (   0.1250000   0.2500000   0.0000000), wk =   0.0625000
        k(   14) = (   0.1250000   0.2500000   0.3333333), wk =   0.0625000
        k(   15) = (   0.1250000   0.3750000   0.0000000), wk =   0.0625000
        k(   16) = (   0.1250000   0.3750000   0.3333333), wk =   0.0625000
        k(   17) = (   0.2500000   0.2500000   0.0000000), wk =   0.0312500
        k(   18) = (   0.2500000   0.2500000   0.3333333), wk =   0.0625000
        k(   19) = (   0.2500000   0.3750000   0.0000000), wk =   0.0312500
        k(   20) = (   0.2500000   0.3750000   0.3333333), wk =   0.0625000
        k(   21) = (   0.0000000  -0.1250000   0.3333333), wk =   0.0312500
        k(   22) = (   0.0000000  -0.2500000   0.3333333), wk =   0.0312500
        k(   23) = (   0.0000000  -0.3750000   0.3333333), wk =   0.0312500
        k(   24) = (  -0.1250000  -0.2500000   0.3333333), wk =   0.0625000
        k(   25) = (  -0.1250000  -0.3750000   0.3333333), wk =   0.0625000

     Dense  grid:    60133 G-vectors     FFT dimensions: (  40,  40,  96)

     Smooth grid:    21263 G-vectors     FFT dimensions: (  27,  27,  72)

     Dynamical RAM for                 wfc:       1.10 MB

     Dynamical RAM for     wfc (w. buffer):      55.93 MB

     Dynamical RAM for           str. fact:       2.75 MB

     Dynamical RAM for           local pot:       0.00 MB

     Dynamical RAM for          nlocal pot:       2.11 MB

     Dynamical RAM for                qrad:       5.27 MB

     Dynamical RAM for          rho,v,vnew:      12.54 MB

     Dynamical RAM for               rhoin:       4.18 MB

     Dynamical RAM for            rho*nmix:      29.36 MB

     Dynamical RAM for           G-vectors:       3.60 MB

     Dynamical RAM for          h,s,v(r/c):       0.13 MB

     Dynamical RAM for          <psi|beta>:       0.02 MB

     Dynamical RAM for                 psi:       2.19 MB

     Dynamical RAM for                hpsi:       2.19 MB

     Dynamical RAM for                spsi:       2.19 MB

     Dynamical RAM for      wfcinit/wfcrot:       2.21 MB

     Dynamical RAM for           addusdens:     173.42 MB

     Dynamical RAM for          addusforce:     175.27 MB

     Estimated static dynamical RAM per process >      97.09 MB

     Estimated max dynamical RAM per process >     301.72 MB

     Check: negative core charge=   -0.000008
     Generating pointlists ...
     new r_m :   0.2745 (alat units)  1.5045 (a.u.) for type    1
     new r_m :   0.2745 (alat units)  1.5045 (a.u.) for type    2
     new r_m :   0.3188 (alat units)  1.7471 (a.u.) for type    3

     Initial potential from superposition of free atoms

     starting charge      37.9809, renormalised to      38.0000
     Starting wfcs are   26 randomized atomic wfcs +    1 random wfcs
     Checking if some PAW data can be deallocated... 

     total cpu time spent up to now is        3.9 secs

     Self-consistent Calculation
[tb_dev] Currently allocated     6.58E-01 Mbytes, locked:    0 /   6
[tb_pin] Currently allocated     0.00E+00 Mbytes, locked:    0 /   0

     iteration #  1     ecut=    60.00 Ry     beta= 0.30
     Davidson diagonalization with overlap

---- Real-time Memory Report at c_bands before calling an iterative solver
           671 MiB given to the printing process from OS
             0 MiB allocation reported by mallinfo(arena+hblkhd)
       1353504 MiB available memory on the node where the printing process lives
     GPU memory used/free/total (MiB): 1002 / 80148 / 81151
------------------
     ethr =  1.00E-02,  avg # of iterations =  9.9

     total cpu time spent up to now is        6.2 secs

     total energy              =    -572.75307582 Ry
     estimated scf accuracy    <       1.56884036 Ry

     total magnetization       =     4.00 Bohr mag/cell
     absolute magnetization    =     4.00 Bohr mag/cell
[tb_dev] Currently allocated     3.05E-05 Mbytes, locked:    0 /   2
[tb_pin] Currently allocated     0.00E+00 Mbytes, locked:    0 /   0

     iteration #  2     ecut=    60.00 Ry     beta= 0.30
     Davidson diagonalization with overlap

---- Real-time Memory Report at c_bands before calling an iterative solver
           713 MiB given to the printing process from OS
             0 MiB allocation reported by mallinfo(arena+hblkhd)
       1349748 MiB available memory on the node where the printing process lives
     GPU memory used/free/total (MiB): 1018 / 80132 / 81151
------------------
     ethr =  4.13E-03,  avg # of iterations =  1.8

     total cpu time spent up to now is        7.5 secs

     total energy              =    -572.73892266 Ry
     estimated scf accuracy    <       0.51260111 Ry

     total magnetization       =     3.84 Bohr mag/cell
     absolute magnetization    =     3.84 Bohr mag/cell
[tb_dev] Currently allocated     3.05E-05 Mbytes, locked:    0 /   2
[tb_pin] Currently allocated     0.00E+00 Mbytes, locked:    0 /   0

     iteration #  3     ecut=    60.00 Ry     beta= 0.30
     Davidson diagonalization with overlap

---- Real-time Memory Report at c_bands before calling an iterative solver
           716 MiB given to the printing process from OS
             0 MiB allocation reported by mallinfo(arena+hblkhd)
       1348110 MiB available memory on the node where the printing process lives
     GPU memory used/free/total (MiB): 1018 / 80132 / 81151
------------------
     ethr =  1.35E-03,  avg # of iterations =  2.7

     total cpu time spent up to now is        9.0 secs

     total energy              =    -572.96409841 Ry
     estimated scf accuracy    <       1.01424136 Ry

     total magnetization       =     1.55 Bohr mag/cell
     absolute magnetization    =     1.78 Bohr mag/cell
[tb_dev] Currently allocated     3.05E-05 Mbytes, locked:    0 /   2
[tb_pin] Currently allocated     0.00E+00 Mbytes, locked:    0 /   0

     iteration #  4     ecut=    60.00 Ry     beta= 0.30
     Davidson diagonalization with overlap

---- Real-time Memory Report at c_bands before calling an iterative solver
           717 MiB given to the printing process from OS
             0 MiB allocation reported by mallinfo(arena+hblkhd)
       1345583 MiB available memory on the node where the printing process lives
     GPU memory used/free/total (MiB): 1018 / 80132 / 81151
------------------
     ethr =  1.35E-03,  avg # of iterations =  1.7

     total cpu time spent up to now is       10.3 secs

     total energy              =    -572.97153828 Ry
     estimated scf accuracy    <       2.94577338 Ry

     total magnetization       =     0.82 Bohr mag/cell
     absolute magnetization    =     1.21 Bohr mag/cell
[tb_dev] Currently allocated     3.05E-05 Mbytes, locked:    0 /   2
[tb_pin] Currently allocated     0.00E+00 Mbytes, locked:    0 /   0

     iteration #  5     ecut=    60.00 Ry     beta= 0.30
     Davidson diagonalization with overlap

---- Real-time Memory Report at c_bands before calling an iterative solver
           717 MiB given to the printing process from OS
             0 MiB allocation reported by mallinfo(arena+hblkhd)
       1343036 MiB available memory on the node where the printing process lives
     GPU memory used/free/total (MiB): 1018 / 80132 / 81151
------------------
     ethr =  1.35E-03,  avg # of iterations =  1.5

     total cpu time spent up to now is       11.6 secs

     total energy              =    -572.89739084 Ry
     estimated scf accuracy    <       1.83876055 Ry

     total magnetization       =     0.69 Bohr mag/cell
     absolute magnetization    =     1.19 Bohr mag/cell
[tb_dev] Currently allocated     3.05E-05 Mbytes, locked:    0 /   2
[tb_pin] Currently allocated     0.00E+00 Mbytes, locked:    0 /   0

     iteration #  6     ecut=    60.00 Ry     beta= 0.30
     Davidson diagonalization with overlap

---- Real-time Memory Report at c_bands before calling an iterative solver
           718 MiB given to the printing process from OS
             0 MiB allocation reported by mallinfo(arena+hblkhd)
       1340179 MiB available memory on the node where the printing process lives
     GPU memory used/free/total (MiB): 1018 / 80132 / 81151
------------------
     ethr =  1.35E-03,  avg # of iterations =  1.5

     total cpu time spent up to now is       12.8 secs

     total energy              =    -572.91980450 Ry
     estimated scf accuracy    <       0.65723525 Ry

     total magnetization       =     0.53 Bohr mag/cell
     absolute magnetization    =     1.09 Bohr mag/cell
[tb_dev] Currently allocated     3.05E-05 Mbytes, locked:    0 /   2
[tb_pin] Currently allocated     0.00E+00 Mbytes, locked:    0 /   0

     iteration #  7     ecut=    60.00 Ry     beta= 0.30
     Davidson diagonalization with overlap

---- Real-time Memory Report at c_bands before calling an iterative solver
           720 MiB given to the printing process from OS
             0 MiB allocation reported by mallinfo(arena+hblkhd)
       1360269 MiB available memory on the node where the printing process lives
     GPU memory used/free/total (MiB): 1018 / 80132 / 81151
------------------
     ethr =  1.35E-03,  avg # of iterations =  1.6

     total cpu time spent up to now is       14.2 secs

     total energy              =    -572.95500366 Ry
     estimated scf accuracy    <       0.19566954 Ry

     total magnetization       =     0.00 Bohr mag/cell
     absolute magnetization    =     0.62 Bohr mag/cell
[tb_dev] Currently allocated     3.05E-05 Mbytes, locked:    0 /   2
[tb_pin] Currently allocated     0.00E+00 Mbytes, locked:    0 /   0

     iteration #  8     ecut=    60.00 Ry     beta= 0.30
     Davidson diagonalization with overlap

---- Real-time Memory Report at c_bands before calling an iterative solver
           720 MiB given to the printing process from OS
             0 MiB allocation reported by mallinfo(arena+hblkhd)
       1359421 MiB available memory on the node where the printing process lives
     GPU memory used/free/total (MiB): 1018 / 80132 / 81151
------------------
     ethr =  5.15E-04,  avg # of iterations =  3.4

     total cpu time spent up to now is       15.7 secs

     total energy              =    -572.95062038 Ry
     estimated scf accuracy    <       0.07446907 Ry

     total magnetization       =     0.00 Bohr mag/cell
     absolute magnetization    =     0.26 Bohr mag/cell
[tb_dev] Currently allocated     3.05E-05 Mbytes, locked:    0 /   2
[tb_pin] Currently allocated     0.00E+00 Mbytes, locked:    0 /   0

     iteration #  9     ecut=    60.00 Ry     beta= 0.30
     Davidson diagonalization with overlap

---- Real-time Memory Report at c_bands before calling an iterative solver
           722 MiB given to the printing process from OS
             0 MiB allocation reported by mallinfo(arena+hblkhd)
       1358232 MiB available memory on the node where the printing process lives
     GPU memory used/free/total (MiB): 1018 / 80132 / 81151
------------------
     ethr =  1.96E-04,  avg # of iterations =  5.2

     total cpu time spent up to now is       17.4 secs

     total energy              =    -572.95971883 Ry
     estimated scf accuracy    <       0.00430267 Ry

     total magnetization       =     0.00 Bohr mag/cell
     absolute magnetization    =     0.18 Bohr mag/cell
[tb_dev] Currently allocated     3.05E-05 Mbytes, locked:    0 /   2
[tb_pin] Currently allocated     0.00E+00 Mbytes, locked:    0 /   0

     iteration # 10     ecut=    60.00 Ry     beta= 0.30
     Davidson diagonalization with overlap

---- Real-time Memory Report at c_bands before calling an iterative solver
           724 MiB given to the printing process from OS
             0 MiB allocation reported by mallinfo(arena+hblkhd)
       1356752 MiB available memory on the node where the printing process lives
     GPU memory used/free/total (MiB): 1018 / 80132 / 81151
------------------
     c_bands:  1 eigenvalues not converged
     c_bands:  1 eigenvalues not converged
     c_bands:  1 eigenvalues not converged
     c_bands:  1 eigenvalues not converged
     c_bands:  1 eigenvalues not converged
     c_bands:  1 eigenvalues not converged
     c_bands:  1 eigenvalues not converged
     c_bands:  1 eigenvalues not converged
     c_bands:  1 eigenvalues not converged
     c_bands:  1 eigenvalues not converged
     c_bands:  2 eigenvalues not converged
     c_bands:  1 eigenvalues not converged
     c_bands:  1 eigenvalues not converged
     ethr =  1.13E-05,  avg # of iterations = 13.7

     total cpu time spent up to now is       20.2 secs

     total energy              =    -572.96193892 Ry
     estimated scf accuracy    <       0.00328825 Ry

     total magnetization       =     0.00 Bohr mag/cell
     absolute magnetization    =     0.07 Bohr mag/cell
[tb_dev] Currently allocated     3.05E-05 Mbytes, locked:    0 /   2
[tb_pin] Currently allocated     0.00E+00 Mbytes, locked:    0 /   0

     iteration # 11     ecut=    60.00 Ry     beta= 0.30
     Davidson diagonalization with overlap

---- Real-time Memory Report at c_bands before calling an iterative solver
           724 MiB given to the printing process from OS
             0 MiB allocation reported by mallinfo(arena+hblkhd)
       1354337 MiB available memory on the node where the printing process lives
     GPU memory used/free/total (MiB): 1018 / 80132 / 81151
------------------
     c_bands:  1 eigenvalues not converged
     ethr =  8.65E-06,  avg # of iterations =  3.1

     total cpu time spent up to now is       21.7 secs

     total energy              =    -572.96235054 Ry
     estimated scf accuracy    <       0.00099414 Ry

     total magnetization       =     0.00 Bohr mag/cell
     absolute magnetization    =     0.04 Bohr mag/cell
[tb_dev] Currently allocated     3.05E-05 Mbytes, locked:    0 /   2
[tb_pin] Currently allocated     0.00E+00 Mbytes, locked:    0 /   0

     iteration # 12     ecut=    60.00 Ry     beta= 0.30
     Davidson diagonalization with overlap

---- Real-time Memory Report at c_bands before calling an iterative solver
           725 MiB given to the printing process from OS
             0 MiB allocation reported by mallinfo(arena+hblkhd)
       1353054 MiB available memory on the node where the printing process lives
     GPU memory used/free/total (MiB): 1018 / 80132 / 81151
------------------
     c_bands:  1 eigenvalues not converged
     c_bands:  1 eigenvalues not converged
     ethr =  2.62E-06,  avg # of iterations =  4.8

     total cpu time spent up to now is       23.4 secs

     total energy              =    -572.96240823 Ry
     estimated scf accuracy    <       0.00096981 Ry

     total magnetization       =     0.00 Bohr mag/cell
     absolute magnetization    =     0.03 Bohr mag/cell
[tb_dev] Currently allocated     3.05E-05 Mbytes, locked:    0 /   2
[tb_pin] Currently allocated     0.00E+00 Mbytes, locked:    0 /   0

     iteration # 13     ecut=    60.00 Ry     beta= 0.30
     Davidson diagonalization with overlap

---- Real-time Memory Report at c_bands before calling an iterative solver
           725 MiB given to the printing process from OS
             0 MiB allocation reported by mallinfo(arena+hblkhd)
       1351064 MiB available memory on the node where the printing process lives
     GPU memory used/free/total (MiB): 1018 / 80132 / 81151
------------------
     ethr =  2.55E-06,  avg # of iterations =  1.9

     total cpu time spent up to now is       24.7 secs

     total energy              =    -572.96258888 Ry
     estimated scf accuracy    <       0.00012457 Ry

     total magnetization       =     0.00 Bohr mag/cell
     absolute magnetization    =     0.02 Bohr mag/cell
[tb_dev] Currently allocated     3.05E-05 Mbytes, locked:    0 /   2
[tb_pin] Currently allocated     0.00E+00 Mbytes, locked:    0 /   0

     iteration # 14     ecut=    60.00 Ry     beta= 0.30
     Davidson diagonalization with overlap

---- Real-time Memory Report at c_bands before calling an iterative solver
           725 MiB given to the printing process from OS
             0 MiB allocation reported by mallinfo(arena+hblkhd)
       1348983 MiB available memory on the node where the printing process lives
     GPU memory used/free/total (MiB): 1018 / 80132 / 81151
------------------
     ethr =  3.28E-07,  avg # of iterations =  3.8

     total cpu time spent up to now is       26.3 secs

     total energy              =    -572.96260127 Ry
     estimated scf accuracy    <       0.00004705 Ry

     total magnetization       =     0.00 Bohr mag/cell
     absolute magnetization    =     0.01 Bohr mag/cell
[tb_dev] Currently allocated     3.05E-05 Mbytes, locked:    0 /   2
[tb_pin] Currently allocated     0.00E+00 Mbytes, locked:    0 /   0

     iteration # 15     ecut=    60.00 Ry     beta= 0.30
     Davidson diagonalization with overlap

---- Real-time Memory Report at c_bands before calling an iterative solver
           725 MiB given to the printing process from OS
             0 MiB allocation reported by mallinfo(arena+hblkhd)
       1346014 MiB available memory on the node where the printing process lives
     GPU memory used/free/total (MiB): 1018 / 80132 / 81151
------------------
     ethr =  1.24E-07,  avg # of iterations =  5.5

     total cpu time spent up to now is       28.1 secs

     total energy              =    -572.96260991 Ry
     estimated scf accuracy    <       0.00001181 Ry

     total magnetization       =     0.00 Bohr mag/cell
     absolute magnetization    =     0.01 Bohr mag/cell
[tb_dev] Currently allocated     3.05E-05 Mbytes, locked:    0 /   2
[tb_pin] Currently allocated     0.00E+00 Mbytes, locked:    0 /   0

     iteration # 16     ecut=    60.00 Ry     beta= 0.30
     Davidson diagonalization with overlap

---- Real-time Memory Report at c_bands before calling an iterative solver
           725 MiB given to the printing process from OS
             0 MiB allocation reported by mallinfo(arena+hblkhd)
       1342649 MiB available memory on the node where the printing process lives
     GPU memory used/free/total (MiB): 1018 / 80132 / 81151
------------------
     ethr =  3.11E-08,  avg # of iterations =  3.3

     total cpu time spent up to now is       29.7 secs

     total energy              =    -572.96261428 Ry
     estimated scf accuracy    <       0.00000392 Ry

     total magnetization       =     0.00 Bohr mag/cell
     absolute magnetization    =     0.00 Bohr mag/cell
[tb_dev] Currently allocated     3.05E-05 Mbytes, locked:    0 /   2
[tb_pin] Currently allocated     0.00E+00 Mbytes, locked:    0 /   0

     iteration # 17     ecut=    60.00 Ry     beta= 0.30
     Davidson diagonalization with overlap

---- Real-time Memory Report at c_bands before calling an iterative solver
           725 MiB given to the printing process from OS
             0 MiB allocation reported by mallinfo(arena+hblkhd)
       1360738 MiB available memory on the node where the printing process lives
     GPU memory used/free/total (MiB): 1018 / 80132 / 81151
------------------
     ethr =  1.03E-08,  avg # of iterations =  3.4

     total cpu time spent up to now is       31.3 secs

     total energy              =    -572.96261362 Ry
     estimated scf accuracy    <       0.00000197 Ry

     total magnetization       =     0.00 Bohr mag/cell
     absolute magnetization    =     0.00 Bohr mag/cell
[tb_dev] Currently allocated     3.05E-05 Mbytes, locked:    0 /   2
[tb_pin] Currently allocated     0.00E+00 Mbytes, locked:    0 /   0

     iteration # 18     ecut=    60.00 Ry     beta= 0.30
     Davidson diagonalization with overlap

---- Real-time Memory Report at c_bands before calling an iterative solver
           725 MiB given to the printing process from OS
             0 MiB allocation reported by mallinfo(arena+hblkhd)
       1360050 MiB available memory on the node where the printing process lives
     GPU memory used/free/total (MiB): 1018 / 80132 / 81151
------------------
     ethr =  5.17E-09,  avg # of iterations =  2.7

     total cpu time spent up to now is       32.8 secs

     total energy              =    -572.96261449 Ry
     estimated scf accuracy    <       0.00000019 Ry

     total magnetization       =    -0.00 Bohr mag/cell
     absolute magnetization    =     0.00 Bohr mag/cell
[tb_dev] Currently allocated     3.05E-05 Mbytes, locked:    0 /   2
[tb_pin] Currently allocated     0.00E+00 Mbytes, locked:    0 /   0

     iteration # 19     ecut=    60.00 Ry     beta= 0.30
     Davidson diagonalization with overlap

---- Real-time Memory Report at c_bands before calling an iterative solver
           725 MiB given to the printing process from OS
             0 MiB allocation reported by mallinfo(arena+hblkhd)
       1358247 MiB available memory on the node where the printing process lives
     GPU memory used/free/total (MiB): 1018 / 80132 / 81151
------------------
     ethr =  5.06E-10,  avg # of iterations =  6.2

     total cpu time spent up to now is       34.7 secs

     total energy              =    -572.96261478 Ry
     estimated scf accuracy    <       0.00000013 Ry

     total magnetization       =     0.00 Bohr mag/cell
     absolute magnetization    =     0.00 Bohr mag/cell
[tb_dev] Currently allocated     3.05E-05 Mbytes, locked:    0 /   2
[tb_pin] Currently allocated     0.00E+00 Mbytes, locked:    0 /   0

     iteration # 20     ecut=    60.00 Ry     beta= 0.30
     Davidson diagonalization with overlap

---- Real-time Memory Report at c_bands before calling an iterative solver
           725 MiB given to the printing process from OS
             0 MiB allocation reported by mallinfo(arena+hblkhd)
       1356423 MiB available memory on the node where the printing process lives
     GPU memory used/free/total (MiB): 1018 / 80132 / 81151
------------------
     ethr =  3.54E-10,  avg # of iterations =  1.7
 
     Magnetic moment per site  (integrated on atomic sphere of radius R)
     atom   1 (R=0.275)  charge= 14.1965  magn=  0.0001
     atom   2 (R=0.275)  charge=  5.2379  magn= -0.0002
     atom   3 (R=0.275)  charge=  5.4164  magn= -0.0000
     atom   4 (R=0.319)  charge=  6.8268  magn= -0.0000

     total cpu time spent up to now is       36.0 secs

     End of self-consistent calculation

 ------ SPIN UP ------------


          k = 0.0000 0.0000 0.0000 (  2625 PWs)   bands (ev):

   -84.9142 -48.2153 -48.2153 -48.0794 -22.0449 -10.2945  -7.9694  -4.4572
    -3.9428  -3.9428   4.2549   4.6756   4.6756   7.5371   7.9052   7.9052
     8.9898   8.9898   9.8404  11.9875  12.3006  12.3006  14.1926  16.7011
    16.7011  18.1946  18.7999

     occupation numbers 
     1.0000   1.0000   1.0000   1.0000   1.0000   1.0000   1.0000   1.0000
     1.0000   1.0000   1.0000   1.0000   1.0000   1.0000   1.0000   1.0000
     1.0000   1.0000   1.0000   0.0000   0.0000   0.0000   0.0000   0.0000
     0.0000   0.0000   0.0000

          k = 0.0000 0.0000 0.1401 (  2690 PWs)   bands (ev):

   -84.9143 -48.2155 -48.2155 -48.0797 -22.0449 -10.3052  -7.9395  -4.4915
    -3.9428  -3.9428   4.3746   4.6764   4.6764   7.3532   7.9016   7.9016
     8.9902   8.9902   9.7397  12.3052  12.3052  12.3646  14.1077  16.6958
    16.6958  17.4174  19.5510

     occupation numbers 
     1.0000   1.0000   1.0000   1.0000   1.0000   1.0000   1.0000   1.0000
     1.0000   1.0000   1.0000   1.0000   1.0000   1.0000   1.0000   1.0000
     1.0000   1.0000   1.0000   0.0000   0.0000   0.0000   0.0000   0.0000
     0.0000   0.0000   0.0000

          k = 0.0000 0.1443 0.0000 (  2661 PWs)   bands (ev):

   -84.9135 -48.2237 -48.2174 -48.0783 -21.9481 -10.1635  -7.9170  -4.6935
    -4.1791  -4.0447   4.3868   4.5942   4.7619   6.8770   7.5078   7.8975
     9.2250   9.3409   9.9239  11.9252  12.2246  12.4278  14.5066  16.0852
    17.1799  18.1859  19.1904

     occupation numbers 
     1.0000   1.0000   1.0000   1.0000   1.0000   1.0000   1.0000   1.0000
     1.0000   1.0000   1.0000   1.0000   1.0000   1.0000   1.0000   1.0000
     1.0000   1.0000   1.0001   0.0000   0.0000   0.0000   0.0000   0.0000
     0.0000   0.0000   0.0000

          k = 0.0000 0.1443 0.1401 (  2670 PWs)   bands (ev):

   -84.9135 -48.2237 -48.2174 -48.0783 -21.9480 -10.1724  -7.8932  -4.7082
    -4.1889  -4.0447   4.4213   4.6117   4.7631   6.9329   7.5049   7.7905
     9.2083   9.3405   9.8668  11.7301  12.2277  12.8487  14.4193  16.0971
    17.1798  17.7996  19.3141

     occupation numbers 
     1.0000   1.0000   1.0000   1.0000   1.0000   1.0000   1.0000   1.0000
     1.0000   1.0000   1.0000   1.0000   1.0000   1.0000   1.0000   1.0000
     1.0000   1.0000   1.0000   0.0000   0.0000   0.0000   0.0000   0.0000
     0.0000   0.0000   0.0000

          k = 0.0000 0.2887 0.0000 (  2664 PWs)   bands (ev):

   -84.9117 -48.2435 -48.2222 -48.0753 -21.7033  -9.8614  -7.7943  -5.4172
    -4.4693  -4.2802   4.2362   4.6505   4.9502   5.9775   6.9975   7.8031
     9.3479   9.6578   9.9935  11.5273  12.1342  13.0824  14.3927  16.2150
    18.2738  18.4823  19.6424

     occupation numbers 
     1.0000   1.0000   1.0000   1.0000   1.0000   1.0000   1.0000   1.0000
     1.0000   1.0000   1.0000   1.0000   1.0000   1.0000   1.0000   1.0000
     1.0000   1.0000   1.0003   0.0001   0.0000   0.0000   0.0000   0.0000
     0.0000   0.0000   0.0000

          k = 0.0000 0.2887 0.1401 (  2656 PWs)   bands (ev):

   -84.9117 -48.2435 -48.2221 -48.0753 -21.7032  -9.8661  -7.7847  -5.4139
    -4.4797  -4.2802   4.2060   4.6543   4.9521   6.0503   6.9942   7.8124
     9.3330   9.6566   9.9769  11.3472  12.1382  13.3391  14.2449  16.2583
    18.3633  18.4877  19.6366

     occupation numbers 
     1.0000   1.0000   1.0000   1.0000   1.0000   1.0000   1.0000   1.0000
     1.0000   1.0000   1.0000   1.0000   1.0000   1.0000   1.0000   1.0000
     1.0000   1.0000   1.0002   0.0022   0.0000   0.0000   0.0000   0.0000
     0.0000   0.0000   0.0000

          k = 0.0000 0.4330 0.0000 (  2668 PWs)   bands (ev):

   -84.9100 -48.2633 -48.2270 -48.0722 -21.4406  -9.6322  -7.6559  -5.9969
    -4.7349  -4.5024   3.6171   4.6687   5.0778   6.0090   6.7702   7.3946
     9.2286   9.6065   9.8893  11.5526  12.1858  12.9821  14.4233  16.9608
    19.1720  19.2138  20.6791

     occupation numbers 
     1.0000   1.0000   1.0000   1.0000   1.0000   1.0000   1.0000   1.0000
     1.0000   1.0000   1.0000   1.0000   1.0000   1.0000   1.0000   1.0000
     1.0000   1.0000   1.0000   0.0000   0.0000   0.0000   0.0000   0.0000
     0.0000   0.0000   0.0000

          k = 0.0000 0.4330 0.1401 (  2668 PWs)   bands (ev):

   -84.9100 -48.2633 -48.2270 -48.0723 -21.4406  -9.6332  -7.6550  -5.9956
    -4.7367  -4.5024   3.6479   4.6281   5.0807   6.0436   6.7649   7.3599
     9.2384   9.6061   9.8783  11.5179  12.1930  13.1384  14.2719  16.8865
    19.1594  19.3679  20.6789

     occupation numbers 
     1.0000   1.0000   1.0000   1.0000   1.0000   1.0000   1.0000   1.0000
     1.0000   1.0000   1.0000   1.0000   1.0000   1.0000   1.0000   1.0000
     1.0000   1.0000   1.0000   0.0001   0.0000   0.0000   0.0000   0.0000
     0.0000   0.0000   0.0000

          k = 0.0000-0.5774 0.0000 (  2658 PWs)   bands (ev):

   -84.9093 -48.2715 -48.2289 -48.0709 -21.3257  -9.5865  -7.5756  -6.1586
    -4.8727  -4.5910   3.2798   4.7441   5.1004   6.0836   6.7510   7.2113
     9.1438   9.5092   9.7971  11.6004  12.2388  12.7984  14.6797  17.0650
    19.1489  19.9055  21.0695

     occupation numbers 
     1.0000   1.0000   1.0000   1.0000   1.0000   1.0000   1.0000   1.0000
     1.0000   1.0000   1.0000   1.0000   1.0000   1.0000   1.0000   1.0000
     1.0000   1.0000   1.0000   0.0000   0.0000   0.0000   0.0000   0.0000
     0.0000   0.0000   0.0000

          k = 0.0000-0.5774 0.1401 (  2664 PWs)   bands (ev):

   -84.9093 -48.2716 -48.2289 -48.0709 -21.3257  -9.5863  -7.5765  -6.1603
    -4.8707  -4.5910   3.3124   4.7042   5.1033   6.1229   6.7456   7.1429
     9.1551   9.5093   9.8004  11.6530  12.2468  12.8603  14.6085  16.7499
    19.1264  20.2219  21.4894

     occupation numbers 
     1.0000   1.0000   1.0000   1.0000   1.0000   1.0000   1.0000   1.0000
     1.0000   1.0000   1.0000   1.0000   1.0000   1.0000   1.0000   1.0000
     1.0000   1.0000   1.0000   0.0000   0.0000   0.0000   0.0000   0.0000
     0.0000   0.0000   0.0000

          k = 0.1250 0.2165 0.0000 (  2673 PWs)   bands (ev):

   -84.9123 -48.2369 -48.2217 -48.0762 -21.7768  -9.9453  -7.8291  -5.1644
    -4.4492  -4.2181   4.3542   4.6572   4.8796   6.1986   6.9280   7.9381
     9.3629   9.6793   9.9685  11.6816  11.9985  12.9931  14.8084  15.5800
    17.7351  18.7410  19.4156

     occupation numbers 
     1.0000   1.0000   1.0000   1.0000   1.0000   1.0000   1.0000   1.0000
     1.0000   1.0000   1.0000   1.0000   1.0000   1.0000   1.0000   1.0000
     1.0000   1.0000   1.0002   0.0000   0.0000   0.0000   0.0000   0.0000
     0.0000   0.0000   0.0000

          k = 0.1250 0.2165 0.1401 (  2654 PWs)   bands (ev):

   -84.9123 -48.2368 -48.2217 -48.0761 -21.7768  -9.9510  -7.8163  -5.1632
    -4.4564  -4.2221   4.3085   4.6701   4.8712   6.3131   6.9268   7.9431
     9.3477   9.6596   9.9410  11.4822  11.9993  13.2154  14.7746  15.5417
    17.8420  18.7333  19.2919

     occupation numbers 
     1.0000   1.0000   1.0000   1.0000   1.0000   1.0000   1.0000   1.0000
     1.0000   1.0000   1.0000   1.0000   1.0000   1.0000   1.0000   1.0000
     1.0000   1.0000   1.0001   0.0002   0.0000   0.0000   0.0000   0.0000
     0.0000   0.0000   0.0000

          k = 0.1250 0.3608 0.0000 (  2648 PWs)   bands (ev):

   -84.9105 -48.2545 -48.2284 -48.0731 -21.5203  -9.6751  -7.6958  -5.7458
    -4.7851  -4.4696   4.0077   4.5531   5.0788   5.9417   6.5571   7.6287
     9.3811   9.7225   9.9438  11.6046  11.9441  13.4731  14.4102  16.4278
    18.0608  19.0827  20.4481

     occupation numbers 
     1.0000   1.0000   1.0000   1.0000   1.0000   1.0000   1.0000   1.0000
     1.0000   1.0000   1.0000   1.0000   1.0000   1.0000   1.0000   1.0000
     1.0000   1.0000   1.0001   0.0000   0.0000   0.0000   0.0000   0.0000
     0.0000   0.0000   0.0000

          k = 0.1250 0.3608 0.1401 (  2658 PWs)   bands (ev):

   -84.9105 -48.2545 -48.2285 -48.0731 -21.5203  -9.6768  -7.6942  -5.7419
    -4.7859  -4.4727   4.0101   4.5421   5.0533   5.9891   6.5637   7.6480
     9.3762   9.7230   9.9313  11.4966  11.9185  13.6537  14.3387  16.3571
    18.1005  19.1172  20.4512

     occupation numbers 
     1.0000   1.0000   1.0000   1.0000   1.0000   1.0000   1.0000   1.0000
     1.0000   1.0000   1.0000   1.0000   1.0000   1.0000   1.0000   1.0000
     1.0000   1.0000   1.0001   0.0001   0.0000   0.0000   0.0000   0.0000
     0.0000   0.0000   0.0000

          k = 0.1250 0.5052 0.0000 (  2661 PWs)   bands (ev):

   -84.9093 -48.2671 -48.2334 -48.0709 -21.3274  -9.5511  -7.5713  -6.0644
    -4.9508  -4.7173   3.4974   4.4904   5.2697   6.1300   6.3846   7.2874
     9.2459   9.5863   9.8902  11.6630  12.0175  13.3145  14.6532  17.0387
    18.5139  19.5151  21.1249

     occupation numbers 
     1.0000   1.0000   1.0000   1.0000   1.0000   1.0000   1.0000   1.0000
     1.0000   1.0000   1.0000   1.0000   1.0000   1.0000   1.0000   1.0000
     1.0000   1.0000   1.0000   0.0000   0.0000   0.0000   0.0000   0.0000
     0.0000   0.0000   0.0000

          k = 0.1250 0.5052 0.1401 (  2664 PWs)   bands (ev):

   -84.9093 -48.2670 -48.2333 -48.0710 -21.3274  -9.5512  -7.5713  -6.0657
    -4.9502  -4.7177   3.5302   4.4855   5.2516   6.1364   6.3965   7.2325
     9.2605   9.5829   9.8941  11.6619  11.9903  13.3963  14.6498  16.8696
    18.4499  19.6346  21.1544

     occupation numbers 
     1.0000   1.0000   1.0000   1.0000   1.0000   1.0000   1.0000   1.0000
     1.0000   1.0000   1.0000   1.0000   1.0000   1.0000   1.0000   1.0000
     1.0000   1.0000   1.0000   0.0000   0.0000   0.0000   0.0000   0.0000
     0.0000   0.0000   0.0000

          k = 0.2500 0.4330 0.0000 (  2661 PWs)   bands (ev):

   -84.9093 -48.2609 -48.2395 -48.0709 -21.3291  -9.5157  -7.5646  -5.9147
    -5.1907  -4.7370   3.7800   4.3769   5.1509   5.9509   6.4004   7.3199
     9.3453   9.6315  10.0023  11.6520  11.8415  14.1314  14.6421  16.6516
    17.7940  19.1297  21.1348

     occupation numbers 
     1.0000   1.0000   1.0000   1.0000   1.0000   1.0000   1.0000   1.0000
     1.0000   1.0000   1.0000   1.0000   1.0000   1.0000   1.0000   1.0000
     1.0000   1.0000   1.0003   0.0000   0.0000   0.0000   0.0000   0.0000
     0.0000   0.0000   0.0000

          k = 0.2500 0.4330 0.1401 (  2664 PWs)   bands (ev):

   -84.9093 -48.2609 -48.2395 -48.0710 -21.3291  -9.5157  -7.5662  -5.9132
    -5.1905  -4.7379   3.7894   4.3972   5.1414   5.9454   6.3801   7.3327
     9.3444   9.6280  10.0197  11.5553  11.8317  14.2576  14.6441  16.6193
    17.6270  19.1981  21.2162

     occupation numbers 
     1.0000   1.0000   1.0000   1.0000   1.0000   1.0000   1.0000   1.0000
     1.0000   1.0000   1.0000   1.0000   1.0000   1.0000   1.0000   1.0000
     1.0000   1.0000   1.0005   0.0000   0.0000   0.0000   0.0000   0.0000
     0.0000   0.0000   0.0000

          k = 0.2500 0.5774 0.0000 (  2661 PWs)   bands (ev):

   -84.9088 -48.2614 -48.2462 -48.0700 -21.2473  -9.4567  -7.4996  -6.0103
    -5.2524  -4.9257   3.6244   4.3987   5.0553   5.9600   6.5563   7.0601
     9.2015   9.7584   9.9689  11.6612  11.8147  14.3748  14.8272  16.7844
    17.9016  19.3144  21.2457

     occupation numbers 
     1.0000   1.0000   1.0000   1.0000   1.0000   1.0000   1.0000   1.0000
     1.0000   1.0000   1.0000   1.0000   1.0000   1.0000   1.0000   1.0000
     1.0000   1.0000   1.0002   0.0000   0.0000   0.0000   0.0000   0.0000
     0.0000   0.0000   0.0000

          k = 0.2500 0.5774 0.1401 (  2673 PWs)   bands (ev):

   -84.9088 -48.2614 -48.2463 -48.0702 -21.2473  -9.4566  -7.4993  -6.0115
    -5.2532  -4.9262   3.6425   4.4215   5.0760   5.9417   6.5270   7.0255
     9.2138   9.7551   9.9872  11.5957  11.7929  14.4008  14.9211  16.7903
    17.7351  19.3511  21.5125

     occupation numbers 
     1.0000   1.0000   1.0000   1.0000   1.0000   1.0000   1.0000   1.0000
     1.0000   1.0000   1.0000   1.0000   1.0000   1.0000   1.0000   1.0000
     1.0000   1.0000   1.0003   0.0000   0.0000   0.0000   0.0000   0.0000
     0.0000   0.0000   0.0000

          k = 0.0000-0.1443 0.1401 (  2670 PWs)   bands (ev):

   -84.9135 -48.2237 -48.2174 -48.0783 -21.9480 -10.1724  -7.8935  -4.7083
    -4.1881  -4.0447   4.4096   4.6151   4.7622   6.9367   7.5073   7.8130
     9.1957   9.3397   9.8588  11.7770  12.2279  12.7680  14.4446  16.0893
    17.1747  17.8516  19.3253

     occupation numbers 
     1.0000   1.0000   1.0000   1.0000   1.0000   1.0000   1.0000   1.0000
     1.0000   1.0000   1.0000   1.0000   1.0000   1.0000   1.0000   1.0000
     1.0000   1.0000   1.0000   0.0000   0.0000   0.0000   0.0000   0.0000
     0.0000   0.0000   0.0000

          k = 0.0000-0.2887 0.1401 (  2656 PWs)   bands (ev):

   -84.9117 -48.2435 -48.2221 -48.0753 -21.7032  -9.8655  -7.7871  -5.4121
    -4.4774  -4.2802   4.1745   4.6343   4.9502   6.0978   6.9982   7.8668
     9.3092   9.6560   9.9616  11.3973  12.1362  13.1776  14.3128  16.2117
    18.4819  18.4825  19.8592

     occupation numbers 
     1.0000   1.0000   1.0000   1.0000   1.0000   1.0000   1.0000   1.0000
     1.0000   1.0000   1.0000   1.0000   1.0000   1.0000   1.0000   1.0000
     1.0000   1.0000   1.0002   0.0009   0.0000   0.0000   0.0000   0.0000
     0.0000   0.0000   0.0000

          k = 0.0000-0.4330 0.1401 (  2668 PWs)   bands (ev):

   -84.9100 -48.2633 -48.2270 -48.0723 -21.4406  -9.6322  -7.6602  -5.9912
    -4.7341  -4.5024   3.6125   4.6294   5.0788   6.0421   6.7686   7.4446
     9.2148   9.6054   9.8807  11.5534  12.1909  13.0372  14.2979  16.7517
    19.1586  19.4152  20.6769

     occupation numbers 
     1.0000   1.0000   1.0000   1.0000   1.0000   1.0000   1.0000   1.0000
     1.0000   1.0000   1.0000   1.0000   1.0000   1.0000   1.0000   1.0000
     1.0000   1.0000   1.0000   0.0000   0.0000   0.0000   0.0000   0.0000
     0.0000   0.0000   0.0000

          k =-0.1250-0.3608 0.1401 (  2658 PWs)   bands (ev):

   -84.9105 -48.2545 -48.2285 -48.0731 -21.5203  -9.6763  -7.6967  -5.7395
    -4.7854  -4.4719   3.9812   4.5438   5.0499   6.0199   6.5508   7.6918
     9.3616   9.7196   9.9370  11.5069  11.9210  13.5614  14.3784  16.3376
    18.0802  19.1283  20.4857

     occupation numbers 
     1.0000   1.0000   1.0000   1.0000   1.0000   1.0000   1.0000   1.0000
     1.0000   1.0000   1.0000   1.0000   1.0000   1.0000   1.0000   1.0000
     1.0000   1.0000   1.0001   0.0001   0.0000   0.0000   0.0000   0.0000
     0.0000   0.0000   0.0000

          k =-0.1250-0.5052 0.1401 (  2664 PWs)   bands (ev):

   -84.9093 -48.2670 -48.2333 -48.0710 -21.3274  -9.5507  -7.5740  -6.0631
    -4.9504  -4.7167   3.5145   4.4877   5.2559   6.1309   6.3853   7.2786
     9.2488   9.5827   9.9006  11.6633  12.0018  13.3486  14.6649  16.8216
    18.4424  19.5905  21.2020

     occupation numbers 
     1.0000   1.0000   1.0000   1.0000   1.0000   1.0000   1.0000   1.0000
     1.0000   1.0000   1.0000   1.0000   1.0000   1.0000   1.0000   1.0000
     1.0000   1.0000   1.0000   0.0000   0.0000   0.0000   0.0000   0.0000
     0.0000   0.0000   0.0000

 ------ SPIN DOWN ----------


          k = 0.0000 0.0000 0.0000 (  2625 PWs)   bands (ev):

   -84.9138 -48.2150 -48.2150 -48.0789 -22.0449 -10.2947  -7.9699  -4.4572
    -3.9428  -3.9428   4.2547   4.6756   4.6756   7.5367   7.9049   7.9049
     8.9900   8.9900   9.8403  11.9875  12.3006  12.3006  14.1926  16.7011
    16.7011  18.1945  18.7998

     occupation numbers 
     1.0000   1.0000   1.0000   1.0000   1.0000   1.0000   1.0000   1.0000
     1.0000   1.0000   1.0000   1.0000   1.0000   1.0000   1.0000   1.0000
     1.0000   1.0000   1.0000   0.0000   0.0000   0.0000   0.0000   0.0000
     0.0000   0.0000   0.0000

          k = 0.0000 0.0000 0.1401 (  2690 PWs)   bands (ev):

   -84.9139 -48.2153 -48.2153 -48.0792 -22.0449 -10.3053  -7.9400  -4.4916
    -3.9428  -3.9428   4.3745   4.6764   4.6764   7.3528   7.9014   7.9014
     8.9905   8.9905   9.7396  12.3052  12.3052  12.3645  14.1077  16.6958
    16.6958  17.4173  19.5510

     occupation numbers 
     1.0000   1.0000   1.0000   1.0000   1.0000   1.0000   1.0000   1.0000
     1.0000   1.0000   1.0000   1.0000   1.0000   1.0000   1.0000   1.0000
     1.0000   1.0000   1.0000   0.0000   0.0000   0.0000   0.0000   0.0000
     0.0000   0.0000   0.0000

          k = 0.0000 0.1443 0.0000 (  2661 PWs)   bands (ev):

   -84.9132 -48.2234 -48.2171 -48.0778 -21.9481 -10.1636  -7.9175  -4.6935
    -4.1791  -4.0447   4.3867   4.5942   4.7619   6.8768   7.5077   7.8972
     9.2252   9.3411   9.9238  11.9253  12.2247  12.4277  14.5066  16.0852
    17.1799  18.1857  19.1904

     occupation numbers 
     1.0000   1.0000   1.0000   1.0000   1.0000   1.0000   1.0000   1.0000
     1.0000   1.0000   1.0000   1.0000   1.0000   1.0000   1.0000   1.0000
     1.0000   1.0000   1.0001   0.0000   0.0000   0.0000   0.0000   0.0000
     0.0000   0.0000   0.0000

          k = 0.0000 0.1443 0.1401 (  2670 PWs)   bands (ev):

   -84.9132 -48.2234 -48.2172 -48.0779 -21.9480 -10.1726  -7.8937  -4.7082
    -4.1889  -4.0447   4.4211   4.6117   4.7631   6.9327   7.5048   7.7902
     9.2084   9.3407   9.8668  11.7302  12.2278  12.8486  14.4192  16.0971
    17.1798  17.7995  19.3142

     occupation numbers 
     1.0000   1.0000   1.0000   1.0000   1.0000   1.0000   1.0000   1.0000
     1.0000   1.0000   1.0000   1.0000   1.0000   1.0000   1.0000   1.0000
     1.0000   1.0000   1.0000   0.0000   0.0000   0.0000   0.0000   0.0000
     0.0000   0.0000   0.0000

          k = 0.0000 0.2887 0.0000 (  2664 PWs)   bands (ev):

   -84.9114 -48.2433 -48.2219 -48.0748 -21.7032  -9.8615  -7.7948  -5.4171
    -4.4693  -4.2802   4.2361   4.6504   4.9503   5.9773   6.9973   7.8028
     9.3479   9.6579   9.9935  11.5274  12.1343  13.0823  14.3927  16.2150
    18.2738  18.4823  19.6422

     occupation numbers 
     1.0000   1.0000   1.0000   1.0000   1.0000   1.0000   1.0000   1.0000
     1.0000   1.0000   1.0000   1.0000   1.0000   1.0000   1.0000   1.0000
     1.0000   1.0000   1.0003   0.0001   0.0000   0.0000   0.0000   0.0000
     0.0000   0.0000   0.0000

          k = 0.0000 0.2887 0.1401 (  2656 PWs)   bands (ev):

   -84.9114 -48.2432 -48.2219 -48.0748 -21.7032  -9.8662  -7.7852  -5.4139
    -4.4797  -4.2802   4.2059   4.6542   4.9522   6.0502   6.9941   7.8120
     9.3331   9.6567   9.9768  11.3474  12.1383  13.3391  14.2448  16.2583
    18.3633  18.4878  19.8315

     occupation numbers 
     1.0000   1.0000   1.0000   1.0000   1.0000   1.0000   1.0000   1.0000
     1.0000   1.0000   1.0000   1.0000   1.0000   1.0000   1.0000   1.0000
     1.0000   1.0000   1.0002   0.0022   0.0000   0.0000   0.0000   0.0000
     0.0000   0.0000   0.0000

          k = 0.0000 0.4330 0.0000 (  2668 PWs)   bands (ev):

   -84.9097 -48.2631 -48.2267 -48.0717 -21.4406  -9.6323  -7.6564  -5.9969
    -4.7349  -4.5024   3.6171   4.6686   5.0778   6.0088   6.7700   7.3942
     9.2286   9.6066   9.8893  11.5527  12.1859  12.9821  14.4233  16.9608
    19.1720  19.2138  20.6790

     occupation numbers 
     1.0000   1.0000   1.0000   1.0000   1.0000   1.0000   1.0000   1.0000
     1.0000   1.0000   1.0000   1.0000   1.0000   1.0000   1.0000   1.0000
     1.0000   1.0000   1.0000   0.0000   0.0000   0.0000   0.0000   0.0000
     0.0000   0.0000   0.0000

          k = 0.0000 0.4330 0.1401 (  2668 PWs)   bands (ev):

   -84.9097 -48.2630 -48.2267 -48.0718 -21.4405  -9.6333  -7.6556  -5.9956
    -4.7367  -4.5024   3.6479   4.6280   5.0808   6.0434   6.7647   7.3595
     9.2385   9.6061   9.8784  11.5180  12.1931  13.1383  14.2719  16.8865
    19.1594  19.3678  20.7733

     occupation numbers 
     1.0000   1.0000   1.0000   1.0000   1.0000   1.0000   1.0000   1.0000
     1.0000   1.0000   1.0000   1.0000   1.0000   1.0000   1.0000   1.0000
     1.0000   1.0000   1.0000   0.0001   0.0000   0.0000   0.0000   0.0000
     0.0000   0.0000   0.0000

          k = 0.0000-0.5774 0.0000 (  2658 PWs)   bands (ev):

   -84.9089 -48.2713 -48.2286 -48.0704 -21.3257  -9.5866  -7.5761  -6.1586
    -4.8727  -4.5910   3.2797   4.7440   5.1005   6.0834   6.7507   7.2109
     9.1439   9.5093   9.7972  11.6005  12.2390  12.7984  14.6797  17.0650
    19.1490  19.9055  21.0698

     occupation numbers 
     1.0000   1.0000   1.0000   1.0000   1.0000   1.0000   1.0000   1.0000
     1.0000   1.0000   1.0000   1.0000   1.0000   1.0000   1.0000   1.0000
     1.0000   1.0000   1.0000   0.0000   0.0000   0.0000   0.0000   0.0000
     0.0000   0.0000   0.0000

          k = 0.0000-0.5774 0.1401 (  2664 PWs)   bands (ev):

   -84.9090 -48.2713 -48.2287 -48.0704 -21.3257  -9.5864  -7.5770  -6.1603
    -4.8707  -4.5910   3.3124   4.7041   5.1033   6.1228   6.7454   7.1425
     9.1552   9.5094   9.8005  11.6531  12.2470  12.8603  14.6085  16.7499
    19.1264  20.2218  21.4880

     occupation numbers 
     1.0000   1.0000   1.0000   1.0000   1.0000   1.0000   1.0000   1.0000
     1.0000   1.0000   1.0000   1.0000   1.0000   1.0000   1.0000   1.0000
     1.0000   1.0000   1.0000   0.0000   0.0000   0.0000   0.0000   0.0000
     0.0000   0.0000   0.0000

          k = 0.1250 0.2165 0.0000 (  2673 PWs)   bands (ev):

   -84.9119 -48.2366 -48.2214 -48.0758 -21.7768  -9.9454  -7.8296  -5.1644
    -4.4492  -4.2181   4.3541   4.6571   4.8796   6.1984   6.9279   7.9378
     9.3630   9.6794   9.9685  11.6817  11.9986  12.9931  14.8084  15.5800
    17.7351  18.7409  19.4156

     occupation numbers 
     1.0000   1.0000   1.0000   1.0000   1.0000   1.0000   1.0000   1.0000
     1.0000   1.0000   1.0000   1.0000   1.0000   1.0000   1.0000   1.0000
     1.0000   1.0000   1.0002   0.0000   0.0000   0.0000   0.0000   0.0000
     0.0000   0.0000   0.0000

          k = 0.1250 0.2165 0.1401 (  2654 PWs)   bands (ev):

   -84.9119 -48.2365 -48.2214 -48.0756 -21.7767  -9.9511  -7.8167  -5.1632
    -4.4564  -4.2221   4.3084   4.6700   4.8713   6.3129   6.9268   7.9427
     9.3478   9.6597   9.9410  11.4824  11.9994  13.2154  14.7746  15.5417
    17.8420  18.7332  19.2916

     occupation numbers 
     1.0000   1.0000   1.0000   1.0000   1.0000   1.0000   1.0000   1.0000
     1.0000   1.0000   1.0000   1.0000   1.0000   1.0000   1.0000   1.0000
     1.0000   1.0000   1.0001   0.0002   0.0000   0.0000   0.0000   0.0000
     0.0000   0.0000   0.0000

          k = 0.1250 0.3608 0.0000 (  2648 PWs)   bands (ev):

   -84.9102 -48.2542 -48.2281 -48.0726 -21.5203  -9.6752  -7.6963  -5.7458
    -4.7851  -4.4696   4.0077   4.5530   5.0788   5.9415   6.5570   7.6283
     9.3811   9.7225   9.9438  11.6047  11.9442  13.4731  14.4102  16.4277
    18.0608  19.0827  20.4482

     occupation numbers 
     1.0000   1.0000   1.0000   1.0000   1.0000   1.0000   1.0000   1.0000
     1.0000   1.0000   1.0000   1.0000   1.0000   1.0000   1.0000   1.0000
     1.0000   1.0000   1.0001   0.0000   0.0000   0.0000   0.0000   0.0000
     0.0000   0.0000   0.0000

          k = 0.1250 0.3608 0.1401 (  2658 PWs)   bands (ev):

   -84.9102 -48.2543 -48.2282 -48.0726 -21.5203  -9.6769  -7.6947  -5.7419
    -4.7859  -4.4727   4.0100   4.5421   5.0533   5.9890   6.5636   7.6477
     9.3762   9.7231   9.9314  11.4967  11.9187  13.6537  14.3386  16.3571
    18.1005  19.1172  20.4506

     occupation numbers 
     1.0000   1.0000   1.0000   1.0000   1.0000   1.0000   1.0000   1.0000
     1.0000   1.0000   1.0000   1.0000   1.0000   1.0000   1.0000   1.0000
     1.0000   1.0000   1.0001   0.0001   0.0000   0.0000   0.0000   0.0000
     0.0000   0.0000   0.0000

          k = 0.1250 0.5052 0.0000 (  2661 PWs)   bands (ev):

   -84.9090 -48.2668 -48.2331 -48.0704 -21.3274  -9.5512  -7.5719  -6.0644
    -4.9508  -4.7173   3.4973   4.4904   5.2697   6.1299   6.3844   7.2870
     9.2460   9.5864   9.8903  11.6631  12.0177  13.3145  14.6532  17.0387
    18.5139  19.5152  21.1245

     occupation numbers 
     1.0000   1.0000   1.0000   1.0000   1.0000   1.0000   1.0000   1.0000
     1.0000   1.0000   1.0000   1.0000   1.0000   1.0000   1.0000   1.0000
     1.0000   1.0000   1.0000   0.0000   0.0000   0.0000   0.0000   0.0000
     0.0000   0.0000   0.0000

          k = 0.1250 0.5052 0.1401 (  2664 PWs)   bands (ev):

   -84.9090 -48.2668 -48.2331 -48.0705 -21.3274  -9.5513  -7.5718  -6.0657
    -4.9502  -4.7177   3.5301   4.4854   5.2516   6.1362   6.3963   7.2322
     9.2606   9.5829   9.8942  11.6620  11.9905  13.3963  14.6498  16.8696
    18.4499  19.6346  21.1535

     occupation numbers 
     1.0000   1.0000   1.0000   1.0000   1.0000   1.0000   1.0000   1.0000
     1.0000   1.0000   1.0000   1.0000   1.0000   1.0000   1.0000   1.0000
     1.0000   1.0000   1.0000   0.0000   0.0000   0.0000   0.0000   0.0000
     0.0000   0.0000   0.0000

          k = 0.2500 0.4330 0.0000 (  2661 PWs)   bands (ev):

   -84.9090 -48.2606 -48.2393 -48.0705 -21.3291  -9.5158  -7.5652  -5.9147
    -5.1907  -4.7370   3.7800   4.3767   5.1508   5.9508   6.4001   7.3196
     9.3453   9.6315  10.0024  11.6522  11.8417  14.1314  14.6421  16.6515
    17.7940  19.1297  21.1347

     occupation numbers 
     1.0000   1.0000   1.0000   1.0000   1.0000   1.0000   1.0000   1.0000
     1.0000   1.0000   1.0000   1.0000   1.0000   1.0000   1.0000   1.0000
     1.0000   1.0000   1.0003   0.0000   0.0000   0.0000   0.0000   0.0000
     0.0000   0.0000   0.0000

          k = 0.2500 0.4330 0.1401 (  2664 PWs)   bands (ev):

   -84.9090 -48.2606 -48.2392 -48.0706 -21.3291  -9.5157  -7.5667  -5.9132
    -5.1905  -4.7379   3.7894   4.3971   5.1413   5.9454   6.3799   7.3324
     9.3445   9.6281  10.0198  11.5555  11.8319  14.2576  14.6441  16.6193
    17.6270  19.1981  21.2162

     occupation numbers 
     1.0000   1.0000   1.0000   1.0000   1.0000   1.0000   1.0000   1.0000
     1.0000   1.0000   1.0000   1.0000   1.0000   1.0000   1.0000   1.0000
     1.0000   1.0000   1.0005   0.0000   0.0000   0.0000   0.0000   0.0000
     0.0000   0.0000   0.0000

          k = 0.2500 0.5774 0.0000 (  2661 PWs)   bands (ev):

   -84.9084 -48.2611 -48.2459 -48.0696 -21.2473  -9.4568  -7.5001  -6.0103
    -5.2524  -4.9257   3.6244   4.3986   5.0552   5.9600   6.5560   7.0597
     9.2016   9.7584   9.9689  11.6613  11.8149  14.3748  14.8272  16.7844
    17.9016  19.3144  21.2456

     occupation numbers 
     1.0000   1.0000   1.0000   1.0000   1.0000   1.0000   1.0000   1.0000
     1.0000   1.0000   1.0000   1.0000   1.0000   1.0000   1.0000   1.0000
     1.0000   1.0000   1.0002   0.0000   0.0000   0.0000   0.0000   0.0000
     0.0000   0.0000   0.0000

          k = 0.2500 0.5774 0.1401 (  2673 PWs)   bands (ev):

   -84.9085 -48.2611 -48.2460 -48.0697 -21.2473  -9.4567  -7.4998  -6.0115
    -5.2532  -4.9262   3.6425   4.4214   5.0759   5.9417   6.5267   7.0252
     9.2139   9.7552   9.9872  11.5958  11.7931  14.4008  14.9211  16.7903
    17.7351  19.3511  21.5124

     occupation numbers 
     1.0000   1.0000   1.0000   1.0000   1.0000   1.0000   1.0000   1.0000
     1.0000   1.0000   1.0000   1.0000   1.0000   1.0000   1.0000   1.0000
     1.0000   1.0000   1.0003   0.0000   0.0000   0.0000   0.0000   0.0000
     0.0000   0.0000   0.0000

          k = 0.0000-0.1443 0.1401 (  2670 PWs)   bands (ev):

   -84.9132 -48.2234 -48.2172 -48.0779 -21.9480 -10.1725  -7.8940  -4.7083
    -4.1881  -4.0447   4.4095   4.6151   4.7622   6.9365   7.5072   7.8126
     9.1958   9.3398   9.8588  11.7771  12.2280  12.7679  14.4445  16.0893
    17.1747  17.8515  19.3249

     occupation numbers 
     1.0000   1.0000   1.0000   1.0000   1.0000   1.0000   1.0000   1.0000
     1.0000   1.0000   1.0000   1.0000   1.0000   1.0000   1.0000   1.0000
     1.0000   1.0000   1.0000   0.0000   0.0000   0.0000   0.0000   0.0000
     0.0000   0.0000   0.0000

          k = 0.0000-0.2887 0.1401 (  2656 PWs)   bands (ev):

   -84.9114 -48.2432 -48.2219 -48.0748 -21.7032  -9.8656  -7.7876  -5.4121
    -4.4774  -4.2802   4.1744   4.6342   4.9503   6.0976   6.9980   7.8665
     9.3092   9.6561   9.9616  11.3974  12.1363  13.1775  14.3128  16.2117
    18.4819  18.4823  19.8641

     occupation numbers 
     1.0000   1.0000   1.0000   1.0000   1.0000   1.0000   1.0000   1.0000
     1.0000   1.0000   1.0000   1.0000   1.0000   1.0000   1.0000   1.0000
     1.0000   1.0000   1.0002   0.0009   0.0000   0.0000   0.0000   0.0000
     0.0000   0.0000   0.0000

          k = 0.0000-0.4330 0.1401 (  2668 PWs)   bands (ev):

   -84.9097 -48.2631 -48.2267 -48.0718 -21.4405  -9.6323  -7.6607  -5.9912
    -4.7341  -4.5024   3.6124   4.6293   5.0789   6.0420   6.7684   7.4442
     9.2149   9.6055   9.8808  11.5535  12.1910  13.0372  14.2978  16.7517
    19.1586  19.4152  20.6763

     occupation numbers 
     1.0000   1.0000   1.0000   1.0000   1.0000   1.0000   1.0000   1.0000
     1.0000   1.0000   1.0000   1.0000   1.0000   1.0000   1.0000   1.0000
     1.0000   1.0000   1.0000   0.0000   0.0000   0.0000   0.0000   0.0000
     0.0000   0.0000   0.0000

          k =-0.1250-0.3608 0.1401 (  2658 PWs)   bands (ev):

   -84.9102 -48.2543 -48.2282 -48.0726 -21.5203  -9.6764  -7.6972  -5.7395
    -4.7854  -4.4719   3.9811   4.5437   5.0499   6.0198   6.5507   7.6914
     9.3617   9.7197   9.9370  11.5070  11.9212  13.5614  14.3783  16.3376
    18.0802  19.1283  20.4835

     occupation numbers 
     1.0000   1.0000   1.0000   1.0000   1.0000   1.0000   1.0000   1.0000
     1.0000   1.0000   1.0000   1.0000   1.0000   1.0000   1.0000   1.0000
     1.0000   1.0000   1.0001   0.0001   0.0000   0.0000   0.0000   0.0000
     0.0000   0.0000   0.0000

          k =-0.1250-0.5052 0.1401 (  2664 PWs)   bands (ev):

   -84.9090 -48.2668 -48.2331 -48.0705 -21.3274  -9.5508  -7.5745  -6.0631
    -4.9503  -4.7167   3.5144   4.4877   5.2559   6.1307   6.3852   7.2782
     9.2489   9.5828   9.9007  11.6635  12.0020  13.3486  14.6649  16.8215
    18.4424  19.5905  21.2021

     occupation numbers 
     1.0000   1.0000   1.0000   1.0000   1.0000   1.0000   1.0000   1.0000
     1.0000   1.0000   1.0000   1.0000   1.0000   1.0000   1.0000   1.0000
     1.0000   1.0000   1.0000   0.0000   0.0000   0.0000   0.0000   0.0000
     0.0000   0.0000   0.0000

     the Fermi energy is    10.9035 ev

     WARNING: integrated charge=    38.00050625, expected=    38.00000000

!    total energy              =    -572.96261465 Ry
     total all-electron energy =     -4292.073451 Ry
     estimated scf accuracy    <       0.00000004 Ry
     smearing contrib. (-TS)   =       0.00000756 Ry
     internal energy E=F+TS    =    -572.96262221 Ry

     The total energy is F=E-TS. E is the sum of the following terms:
     one-electron contribution =    -423.17413242 Ry
     hartree contribution      =     232.31122661 Ry
     xc contribution           =     -57.11568958 Ry
     ewald contribution        =    -162.80316515 Ry
     one-center paw contrib.   =    -162.18086168 Ry
      -> PAW hartree energy AE =     314.07566362 Ry
      -> PAW hartree energy PS =    -312.70500288 Ry
      -> PAW xc energy AE      =    -217.50029712 Ry
      -> PAW xc energy PS      =      53.94877471 Ry
      -> total E_H with PAW    =     233.68188735 Ry
      -> total E_XC with PAW   =    -220.66721199 Ry

     total magnetization       =     0.00 Bohr mag/cell
     absolute magnetization    =     0.00 Bohr mag/cell

     convergence has been achieved in  20 iterations

     Forces acting on atoms (cartesian axes, Ry/au):

     atom    1 type  1   force =     0.00000000    0.00000000    0.12827477
     atom    2 type  2   force =     0.00000000    0.00000000   -0.00696588
     atom    3 type  2   force =     0.00000000    0.00000000    0.04923930
     atom    4 type  3   force =     0.00000000    0.00000000   -0.17054819
     The non-local contrib.  to forces
     atom    1 type  1   force =     0.00000000    0.00000000   -0.28453146
     atom    2 type  2   force =    -0.00000000   -0.00000000   -1.05682450
     atom    3 type  2   force =    -0.00000000   -0.00000000    0.52344797
     atom    4 type  3   force =     0.00000000   -0.00000000   -0.19497775
     The ionic contribution  to forces
     atom    1 type  1   force =    -0.00000000   -0.00000000   22.39937750
     atom    2 type  2   force =     0.00000000   -0.00000000   32.90624017
     atom    3 type  2   force =    -0.00000000    0.00000000  -19.47172772
     atom    4 type  3   force =     0.00000000   -0.00000000  -35.83388995
     The local contribution  to forces
     atom    1 type  1   force =    -0.00000000   -0.00000000  -21.98677255
     atom    2 type  2   force =     0.00000001   -0.00000001  -31.86559863
     atom    3 type  2   force =    -0.00000001    0.00000001   19.00355752
     atom    4 type  3   force =    -0.00000000    0.00000000   35.85047757
     The core correction contribution to forces
     atom    1 type  1   force =     0.00000000   -0.00000000    0.00018197
     atom    2 type  2   force =    -0.00000000    0.00000000    0.00930051
     atom    3 type  2   force =     0.00000000   -0.00000000   -0.00575975
     atom    4 type  3   force =    -0.00000000    0.00000000    0.00778006
     The Hubbard contrib.    to forces
     atom    1 type  1   force =     0.00000000    0.00000000    0.00000000
     atom    2 type  2   force =     0.00000000    0.00000000    0.00000000
     atom    3 type  2   force =     0.00000000    0.00000000    0.00000000
     atom    4 type  3   force =     0.00000000    0.00000000    0.00000000
     The SCF correction term to forces
     atom    1 type  1   force =     0.00000000   -0.00000000    0.00006235
     atom    2 type  2   force =    -0.00000000    0.00000000   -0.00004039
     atom    3 type  2   force =     0.00000000   -0.00000000   -0.00023567
     atom    4 type  3   force =     0.00000000   -0.00000000    0.00010493

     Total force =     0.219121     Total SCF correction =     0.000268

     Writing all to output data dir ./out/pw.save/ :
     XML data file, charge density, pseudopotentials, collected wavefunctions
 
     init_run     :     12.84s CPU      3.36s WALL (       1 calls)
     electrons    :    123.56s CPU     32.08s WALL (       1 calls)
     forces       :      0.58s CPU      0.55s WALL (       1 calls)

     Called by init_run:
     wfcinit      :      0.28s CPU      0.34s WALL (       1 calls)
     wfcinit:atom :      0.05s CPU      0.05s WALL (      50 calls)
     wfcinit:wfcr :      0.17s CPU      0.21s WALL (      50 calls)
     potinit      :     11.95s CPU      2.38s WALL (       1 calls)
     hinit0       :      0.52s CPU      0.51s WALL (       1 calls)

     Called by electrons:
     c_bands      :     13.44s CPU     13.66s WALL (      20 calls)
     sum_band     :      2.45s CPU      2.48s WALL (      20 calls)
     v_of_rho     :      0.32s CPU      0.16s WALL (      21 calls)
     v_h          :      0.22s CPU      0.03s WALL (      21 calls)
     v_xc         :      0.10s CPU      0.13s WALL (      22 calls)
     newd         :      0.64s CPU      0.53s WALL (      21 calls)
                                        0.53s GPU  (      21 calls)
     PAW_pot      :    110.42s CPU     15.38s WALL (      21 calls)
     mix_rho      :      0.56s CPU      0.56s WALL (      20 calls)

     Called by c_bands:
     init_us_2    :      0.80s CPU      0.80s WALL (    2100 calls)
     cegterg      :     11.94s CPU     12.18s WALL (    1000 calls)

     Called by sum_band:
     sum_band:wei :      0.03s CPU      0.03s WALL (      20 calls)
                                        0.03s GPU  (      20 calls)
     sum_band:loo :      1.28s CPU      1.30s WALL (      20 calls)
                                        1.30s GPU  (      20 calls)
     sum_band:buf :      0.14s CPU      0.17s WALL (    1000 calls)
                                        0.15s GPU  (    1000 calls)
     sum_band:ini :      0.37s CPU      0.39s WALL (    1000 calls)
                                        0.38s GPU  (    1000 calls)
     sum_band:cal :      0.04s CPU      0.06s WALL (    1000 calls)
                                        0.05s GPU  (    1000 calls)
     sum_band:bec :      0.21s CPU      0.23s WALL (    1000 calls)
                                        0.21s GPU  (    1000 calls)
     addusdens    :      1.02s CPU      1.02s WALL (      20 calls)
                                        1.02s GPU  (      20 calls)
     addusd:skk   :      0.00s CPU      0.00s WALL (      60 calls)
                                        0.00s GPU  (      60 calls)

     Called by *egterg:
     cdiaghg      :      4.23s CPU      4.39s WALL (    4966 calls)
                                        4.34s GPU  (    4966 calls)
     cegterg:over :      0.90s CPU      0.95s WALL (    3966 calls)
     cegterg:upda :      0.68s CPU      0.69s WALL (    3966 calls)
     cegterg:last :      0.12s CPU      0.12s WALL (    2005 calls)
     h_psi        :      4.14s CPU      4.31s WALL (    5016 calls)
                                        4.25s GPU  (    5016 calls)
     s_psi        :      0.73s CPU      0.78s WALL (    5016 calls)
     g_psi        :      0.02s CPU      0.09s WALL (    3966 calls)
                                        0.04s GPU  (    3966 calls)

     Called by h_psi:
     h_psi:calbec :      0.15s CPU      0.27s WALL (    5016 calls)
                                        0.21s GPU  (    5016 calls)
     vloc_psi     :      2.82s CPU      2.89s WALL (    5016 calls)
                                        2.83s GPU  (    5016 calls)
     add_vuspsi   :      0.67s CPU      0.80s WALL (    5016 calls)
                                        0.74s GPU  (    5016 calls)

     General routines
     calbec       :      0.16s CPU      0.19s WALL (    6216 calls)
     fft          :      3.23s CPU      0.86s WALL (     538 calls)
                                        0.02s GPU  (     496 calls)
     ffts         :      4.23s CPU      0.79s WALL (     783 calls)
                                        0.02s GPU  (     741 calls)
     fftw         :      0.26s CPU      0.94s WALL (   16134 calls)
                                        0.77s GPU  (   16134 calls)
     interpolate  :      7.59s CPU      1.63s WALL (      42 calls)
 
     Parallel routines

     PAW routines
     PAW_pot      :    110.42s CPU     15.38s WALL (      21 calls)
     PAW_symme    :      0.01s CPU      0.01s WALL (      41 calls)
 
     PWSCF        :   2m17.93s CPU     36.60s WALL

 
   This run was terminated on:   5:37:56  12Jul2026            

=------------------------------------------------------------------------------=
   JOB DONE.
=------------------------------------------------------------------------------=
Warning: ieee_divide_by_zero is signaling
Warning: ieee_inexact is signaling
FORTRAN STOP
