
     Program PWSCF v.7.3.1 starts on 12Jul2026 at 13:30:45 

     This program is part of the open-source Quantum ESPRESSO suite
     for quantum simulation of materials; please cite
         "P. Giannozzi et al., J. Phys.:Condens. Matter 21 395502 (2009);
         "P. Giannozzi et al., J. Phys.:Condens. Matter 29 465901 (2017);
         "P. Giannozzi et al., J. Chem. Phys. 152 154105 (2020);
          URL http://www.quantum-espresso.org", 
     in publications or presentations arising from this work. More details at
     http://www.quantum-espresso.org/quote

     Parallel version (MPI & OpenMP), running on      14 processor cores
     Number of MPI processes:                 1
     Threads/MPI process:                    14

     MPI processes distributed on     1 nodes
     914278 MiB available memory on the printing compute node when the environment starts
 
     Reading input from pw.in

     Current dimensions of program PWSCF are:
     Max number of different atomic species (ntypx) = 10
     Max number of k-points (npk) =  40000
     Max angular momentum in pseudopotentials (lmaxx) =  4
     file Co.pbe-spn-kjpaw_psl.0.3.1.UPF: wavefunction(s)  3P 3D renormalized
     file O.pbe-n-kjpaw_psl.1.0.0.UPF: wavefunction(s)  2S 2P renormalized
     file Na.pbe-spn-kjpaw_psl.1.0.0.UPF: wavefunction(s)  2P renormalized
     file H.pbe-kjpaw_psl.1.0.0.UPF: wavefunction(s)  1S renormalized
 
     Subspace diagonalization in iterative solution of the eigenvalue problem:
     a serial algorithm will be used

 
     G-vector sticks info
     --------------------
     sticks:   dense  smooth     PW     G-vecs:    dense   smooth      PW
     Sum        2941    1483    421               256907    90927   13645
 
     Using Slab Decomposition
 


     bravais-lattice index     =            4
     lattice parameter (alat)  =       9.4527  a.u.
     unit-cell volume          =    1447.6983 (a.u.)^3
     number of atoms/cell      =           22
     number of atomic types    =            4
     number of electrons       =       128.00
     number of Kohn-Sham states=           85
     kinetic-energy cutoff     =      60.0000  Ry
     charge density cutoff     =     480.0000  Ry
     scf convergence threshold =      1.0E-07
     mixing beta               =       0.3000
     number of iterations used =            8  local-TF  mixing
     energy convergence thresh.=      1.0E-04
     force convergence thresh. =      1.0E-03
     Exchange-correlation= SLA  PW   PBX  PBC
                           (   1   4   3   4   0   0   0)
     nstep                     =          100


     GPU acceleration is ACTIVE.  1 visible GPUs per MPI rank
     GPU-aware MPI enabled


     GPU used by master process:

        Device Number: 0
        Device name: NVIDIA A100-SXM4-80GB
        Compute capability : 80
        Ratio of single to double precision performance  : 2
        Memory Clock Rate (KHz): 1593000
        Memory Bus Width (bits): 5120
        Peak Memory Bandwidth (GB/s): ******

     celldm(1)=   9.452718  celldm(2)=   0.000000  celldm(3)=   1.979144
     celldm(4)=   0.000000  celldm(5)=   0.000000  celldm(6)=   0.000000

     crystal axes: (cart. coord. in units of alat)
               a(1) = (   1.000000   0.000000   0.000000 )  
               a(2) = (  -0.500000   0.866025   0.000000 )  
               a(3) = (   0.000000   0.000000   1.979144 )  

     reciprocal axes: (cart. coord. in units 2 pi/alat)
               b(1) = (  1.000000  0.577350 -0.000000 )  
               b(2) = (  0.000000  1.154701  0.000000 )  
               b(3) = (  0.000000 -0.000000  0.505269 )  


     PseudoPot. # 1 for Co read from file:
     ../../pseudo/Co.pbe-spn-kjpaw_psl.0.3.1.UPF
     MD5 check sum: 3c0a43779828c046024e4f3be63f8e67
     Pseudo is Projector augmented-wave + core cor, Zval = 17.0
     Generated using &quot;atomic&quot; code by A. Dal Corso  v.6.2.2
     Shape of augmentation charge: PSQ
     Using radial grid of 1193 points,  6 beta functions with: 
                l(1) =   0
                l(2) =   0
                l(3) =   1
                l(4) =   1
                l(5) =   2
                l(6) =   2
     Q(r) pseudized with 0 coefficients 


     PseudoPot. # 2 for O  read from file:
     ../../pseudo/O.pbe-n-kjpaw_psl.1.0.0.UPF
     MD5 check sum: e99d9cef9b487d1ca56f5b95ecd0fd7a
     Pseudo is Projector augmented-wave + core cor, Zval =  6.0
     Generated using &quot;atomic&quot; code by A. Dal Corso  v.6.3
     Shape of augmentation charge: PSQ
     Using radial grid of 1095 points,  4 beta functions with: 
                l(1) =   0
                l(2) =   0
                l(3) =   1
                l(4) =   1
     Q(r) pseudized with 0 coefficients 


     PseudoPot. # 3 for Na read from file:
     ../../pseudo/Na.pbe-spn-kjpaw_psl.1.0.0.UPF
     MD5 check sum: 05b4deb74e3932c23ab016979dc8b5d4
     Pseudo is Projector augmented-wave + core cor, Zval =  9.0
     Generated using &quot;atomic&quot; code by A. Dal Corso  v.6.3
     Shape of augmentation charge: PSQ
     Using radial grid of 1121 points,  4 beta functions with: 
                l(1) =   0
                l(2) =   0
                l(3) =   1
                l(4) =   1
     Q(r) pseudized with 0 coefficients 


     PseudoPot. # 4 for H  read from file:
     ../../pseudo/H.pbe-kjpaw_psl.1.0.0.UPF
     MD5 check sum: d81a744832360e4a8af0b0b5b123bc2a
     Pseudo is Projector augmented-wave, Zval =  1.0
     Generated using &quot;atomic&quot; code by A. Dal Corso  v.6.3MaX
     Shape of augmentation charge: PSQ
     Using radial grid of  929 points,  2 beta functions with: 
                l(1) =   0
                l(2) =   0
     Q(r) pseudized with 0 coefficients 


     atomic species   valence    mass     pseudopotential
     Co               17.00    58.93300     Co( 1.00)
     O                 6.00    15.99900     O ( 1.00)
     Na                9.00    22.98977     Na( 1.00)
     H                 1.00     1.00800     H ( 1.00)

     Starting magnetic structure 
     atomic species   magnetization
     Co              0.300
     O               0.000
     Na              0.000
     H               0.000

     No symmetry found


                                    s                        frac. trans.

      isym =  1     identity                                     

 cryst.   s( 1) = (     1          0          0      )
                  (     0          1          0      )
                  (     0          0          1      )

 cart.    s( 1) = (  1.0000000  0.0000000  0.0000000 )
                  (  0.0000000  1.0000000  0.0000000 )
                  (  0.0000000  0.0000000  1.0000000 )


     point group C_1 (1)    
     there are  1 classes
     the character table:

       E    
A      1.00

     the symmetry operations in each class and the name of the first element:

     E        1
          identity                                               

   Cartesian axes

     site n.     atom                  positions (alat units)
         1        Co     tau(   1) = (   0.0000000   0.0000000   0.0000000  )
         2        Co     tau(   2) = (  -0.0000000   0.5773503   0.0000000  )
         3        Co     tau(   3) = (   0.5000000   0.2886751   0.0000000  )
         4        O      tau(   4) = (   0.1666667   0.2886751   0.1919170  )
         5        O      tau(   5) = (   0.6666667   0.0000000   0.1919170  )
         6        O      tau(   6) = (  -0.3333333   0.5773503   0.1919170  )
         7        O      tau(   7) = (   0.3333333   0.0000000   1.7872269  )
         8        O      tau(   8) = (   0.3333333   0.5773503   1.7872269  )
         9        O      tau(   9) = (  -0.1666667   0.2886751   1.7872269  )
        10        Na     tau(  10) = (   0.0000000   0.0000000   1.1395071  )
        11        O      tau(  11) = (   0.3333333   0.0000000   0.7496757  )
        12        H      tau(  12) = (   0.5188487   0.0262772   0.7885490  )
        13        H      tau(  13) = (  -0.1727349   0.8397482   0.5602285  )
        14        O      tau(  14) = (  -0.1666667   0.2886751   0.7496757  )
        15        H      tau(  15) = (   0.7178189   0.4361976   0.7885490  )
        16        H      tau(  16) = (  -0.1408758   0.2965585   0.5602285  )
        17        O      tau(  17) = (  -0.0000000   0.5773503   1.2294682  )
        18        H      tau(  18) = (  -0.0756623   0.7513118   1.2043644  )
        19        H      tau(  19) = (   0.0756623   0.5828359   1.4051461  )
        20        O      tau(  20) = (   0.5000000   0.2886751   1.2294682  )
        21        H      tau(  21) = (   0.6128239   0.4411814   1.2043644  )
        22        H      tau(  22) = (   0.5425818   0.2258925   1.4051461  )

     --------------------------------------------
     DFT-D3 Dispersion Correction (3-body terms):
     --------------------------------------------
       Reference C6 values for interpolation: 

         atom   Coordination number   C6
         H          0.912             6.05
         H          0.000            15.18
         O          0.000            31.01
         O          0.993            25.63
         O          1.989            20.74
         Na         0.000          3216.06
         Na         0.968           372.21
         Co         0.000          1065.56
         Co         1.715           373.09
         Co         2.926           296.13
         Co         7.779           236.57

       Values used:

         atom   Coordination number  R0_AB[au]  C6      C8
         Co         6.751            3.243    236.57  20800.86
         Co         6.738            3.243    236.57  20800.86
         Co         6.738            3.243    236.57  20800.86
         O          2.703            2.345     20.74    418.58
         O          2.703            2.345     20.74    418.58
         O          2.703            2.345     20.74    418.58
         O          2.719            2.345     20.74    418.58
         O          2.720            2.345     20.74    418.58
         O          2.719            2.345     20.74    418.58
         Na         4.562            3.504    372.21  48432.19
         O          2.722            2.345     20.74    418.58
         H          1.039            2.062      6.15     74.34
         H          1.009            2.062      6.17     74.62
         O          2.723            2.345     20.74    418.58
         H          1.038            2.062      6.15     74.35
         H          1.009            2.062      6.17     74.62
         O          2.710            2.345     20.74    418.58
         H          1.655            2.062      6.05     73.19
         H          1.054            2.062      6.14     74.22
         O          2.710            2.345     20.74    418.58
         H          1.655            2.062      6.05     73.19
         H          1.054            2.062      6.14     74.22

         Molecular C6 ( Ry / a.u.^6 ) =     16114.25


   Crystallographic axes

     site n.     atom                  positions (cryst. coord.)
         1        Co     tau(   1) = (  0.0000000  0.0000000  0.0000000  )
         2        Co     tau(   2) = (  0.3333333  0.6666667  0.0000000  )
         3        Co     tau(   3) = (  0.6666667  0.3333333  0.0000000  )
         4        O      tau(   4) = (  0.3333333  0.3333333  0.0969697  )
         5        O      tau(   5) = (  0.6666667  0.0000000  0.0969697  )
         6        O      tau(   6) = (  0.0000000  0.6666667  0.0969697  )
         7        O      tau(   7) = (  0.3333333  0.0000000  0.9030303  )
         8        O      tau(   8) = (  0.6666667  0.6666667  0.9030303  )
         9        O      tau(   9) = ( -0.0000000  0.3333333  0.9030303  )
        10        Na     tau(  10) = (  0.0000000  0.0000000  0.5757576  )
        11        O      tau(  11) = (  0.3333333  0.0000000  0.3787879  )
        12        H      tau(  12) = (  0.5340199  0.0303423  0.3984293  )
        13        H      tau(  13) = (  0.3120939  0.9696577  0.2830660  )
        14        O      tau(  14) = ( -0.0000000  0.3333333  0.3787879  )
        15        H      tau(  15) = (  0.9696577  0.5036776  0.3984293  )
        16        H      tau(  16) = (  0.0303423  0.3424362  0.2830660  )
        17        O      tau(  17) = (  0.3333333  0.6666667  0.6212121  )
        18        H      tau(  18) = (  0.3581077  0.8675401  0.6085279  )
        19        H      tau(  19) = (  0.4121628  0.6730009  0.7099767  )
        20        O      tau(  20) = (  0.6666667  0.3333333  0.6212121  )
        21        H      tau(  21) = (  0.8675401  0.5094324  0.6085279  )
        22        H      tau(  22) = (  0.6730009  0.2608382  0.7099767  )

     number of k points=    40  Marzari-Vanderbilt smearing, width (Ry)=  0.0200
                       cart. coord. in units 2pi/alat
        k(    1) = (   0.0000000   0.0000000   0.0000000), wk =   0.0138889
        k(    2) = (   0.0000000   0.0000000  -0.2526345), wk =   0.0138889
        k(    3) = (   0.0000000   0.1924501   0.0000000), wk =   0.0277778
        k(    4) = (   0.0000000   0.1924501  -0.2526345), wk =   0.0277778
        k(    5) = (   0.0000000   0.3849002   0.0000000), wk =   0.0277778
        k(    6) = (   0.0000000   0.3849002  -0.2526345), wk =   0.0277778
        k(    7) = (   0.0000000  -0.5773503   0.0000000), wk =   0.0138889
        k(    8) = (   0.0000000  -0.5773503  -0.2526345), wk =   0.0138889
        k(    9) = (   0.1666667   0.2886751   0.0000000), wk =   0.0277778
        k(   10) = (   0.1666667   0.2886751  -0.2526345), wk =   0.0277778
        k(   11) = (   0.1666667   0.4811252   0.0000000), wk =   0.0277778
        k(   12) = (   0.1666667   0.4811252  -0.2526345), wk =   0.0277778
        k(   13) = (   0.3333333   0.5773503   0.0000000), wk =   0.0277778
        k(   14) = (   0.3333333   0.5773503  -0.2526345), wk =   0.0277778
        k(   15) = (  -0.1666667   0.0962250   0.0000000), wk =   0.0277778
        k(   16) = (   0.1666667   0.0962250   0.0000000), wk =   0.0277778
        k(   17) = (  -0.1666667   0.0962250  -0.2526345), wk =   0.0277778
        k(   18) = (   0.1666667   0.0962250  -0.2526345), wk =   0.0277778
        k(   19) = (  -0.3333333   0.1924501   0.0000000), wk =   0.0277778
        k(   20) = (   0.3333333   0.1924501   0.0000000), wk =   0.0277778
        k(   21) = (  -0.3333333   0.1924501  -0.2526345), wk =   0.0277778
        k(   22) = (   0.3333333   0.1924501  -0.2526345), wk =   0.0277778
        k(   23) = (   0.5000000  -0.2886751   0.0000000), wk =   0.0138889
        k(   24) = (  -0.5000000  -0.2886751   0.0000000), wk =   0.0138889
        k(   25) = (   0.5000000  -0.2886751  -0.2526345), wk =   0.0138889
        k(   26) = (  -0.5000000  -0.2886751  -0.2526345), wk =   0.0138889
        k(   27) = (  -0.1666667   0.2886751   0.0000000), wk =   0.0277778
        k(   28) = (   0.3333333   0.0000000   0.0000000), wk =   0.0277778
        k(   29) = (  -0.1666667   0.2886751   0.2526345), wk =   0.0277778
        k(   30) = (   0.3333333   0.0000000  -0.2526345), wk =   0.0277778
        k(   31) = (  -0.1666667   0.4811252   0.0000000), wk =   0.0277778
        k(   32) = (  -0.3333333   0.3849002   0.0000000), wk =   0.0277778
        k(   33) = (   0.5000000   0.0962250   0.0000000), wk =   0.0277778
        k(   34) = (  -0.3333333  -0.3849002   0.0000000), wk =   0.0277778
        k(   35) = (   0.5000000  -0.0962250   0.0000000), wk =   0.0277778
        k(   36) = (  -0.1666667   0.4811252   0.2526345), wk =   0.0277778
        k(   37) = (  -0.3333333   0.3849002  -0.2526345), wk =   0.0277778
        k(   38) = (   0.5000000   0.0962250  -0.2526345), wk =   0.0277778
        k(   39) = (  -0.3333333  -0.3849002   0.2526345), wk =   0.0277778
        k(   40) = (   0.5000000  -0.0962250   0.2526345), wk =   0.0277778

                       cryst. coord.
        k(    1) = (   0.0000000   0.0000000   0.0000000), wk =   0.0138889
        k(    2) = (   0.0000000   0.0000000  -0.5000000), wk =   0.0138889
        k(    3) = (   0.0000000   0.1666667   0.0000000), wk =   0.0277778
        k(    4) = (   0.0000000   0.1666667  -0.5000000), wk =   0.0277778
        k(    5) = (   0.0000000   0.3333333   0.0000000), wk =   0.0277778
        k(    6) = (   0.0000000   0.3333333  -0.5000000), wk =   0.0277778
        k(    7) = (   0.0000000  -0.5000000   0.0000000), wk =   0.0138889
        k(    8) = (   0.0000000  -0.5000000  -0.5000000), wk =   0.0138889
        k(    9) = (   0.1666667   0.1666667   0.0000000), wk =   0.0277778
        k(   10) = (   0.1666667   0.1666667  -0.5000000), wk =   0.0277778
        k(   11) = (   0.1666667   0.3333333   0.0000000), wk =   0.0277778
        k(   12) = (   0.1666667   0.3333333  -0.5000000), wk =   0.0277778
        k(   13) = (   0.3333333   0.3333333   0.0000000), wk =   0.0277778
        k(   14) = (   0.3333333   0.3333333  -0.5000000), wk =   0.0277778
        k(   15) = (  -0.1666667   0.1666667   0.0000000), wk =   0.0277778
        k(   16) = (   0.1666667  -0.0000000   0.0000000), wk =   0.0277778
        k(   17) = (  -0.1666667   0.1666667  -0.5000000), wk =   0.0277778
        k(   18) = (   0.1666667  -0.0000000  -0.5000000), wk =   0.0277778
        k(   19) = (  -0.3333333   0.3333333   0.0000000), wk =   0.0277778
        k(   20) = (   0.3333333  -0.0000000   0.0000000), wk =   0.0277778
        k(   21) = (  -0.3333333   0.3333333  -0.5000000), wk =   0.0277778
        k(   22) = (   0.3333333  -0.0000000  -0.5000000), wk =   0.0277778
        k(   23) = (   0.5000000  -0.5000000   0.0000000), wk =   0.0138889
        k(   24) = (  -0.5000000   0.0000000   0.0000000), wk =   0.0138889
        k(   25) = (   0.5000000  -0.5000000  -0.5000000), wk =   0.0138889
        k(   26) = (  -0.5000000   0.0000000  -0.5000000), wk =   0.0138889
        k(   27) = (  -0.1666667   0.3333333   0.0000000), wk =   0.0277778
        k(   28) = (   0.3333333  -0.1666667   0.0000000), wk =   0.0277778
        k(   29) = (  -0.1666667   0.3333333   0.5000000), wk =   0.0277778
        k(   30) = (   0.3333333  -0.1666667  -0.5000000), wk =   0.0277778
        k(   31) = (  -0.1666667   0.5000000   0.0000000), wk =   0.0277778
        k(   32) = (  -0.3333333   0.5000000   0.0000000), wk =   0.0277778
        k(   33) = (   0.5000000  -0.1666667   0.0000000), wk =   0.0277778
        k(   34) = (  -0.3333333  -0.1666667   0.0000000), wk =   0.0277778
        k(   35) = (   0.5000000  -0.3333333   0.0000000), wk =   0.0277778
        k(   36) = (  -0.1666667   0.5000000   0.5000000), wk =   0.0277778
        k(   37) = (  -0.3333333   0.5000000  -0.5000000), wk =   0.0277778
        k(   38) = (   0.5000000  -0.1666667  -0.5000000), wk =   0.0277778
        k(   39) = (  -0.3333333  -0.1666667   0.5000000), wk =   0.0277778
        k(   40) = (   0.5000000  -0.3333333   0.5000000), wk =   0.0277778

     Dense  grid:   256907 G-vectors     FFT dimensions: (  72,  72, 135)

     Smooth grid:    90927 G-vectors     FFT dimensions: (  48,  48,  96)

     Dynamical RAM for                 wfc:      14.74 MB

     Dynamical RAM for     wfc (w. buffer):    1193.65 MB

     Dynamical RAM for           str. fact:      15.68 MB

     Dynamical RAM for           local pot:       0.00 MB

     Dynamical RAM for          nlocal pot:      27.39 MB

     Dynamical RAM for                qrad:       7.03 MB

     Dynamical RAM for          rho,v,vnew:      55.56 MB

     Dynamical RAM for               rhoin:      18.52 MB

     Dynamical RAM for            rho*nmix:     125.44 MB

     Dynamical RAM for           G-vectors:      15.39 MB

     Dynamical RAM for          h,s,v(r/c):       1.32 MB

     Dynamical RAM for          <psi|beta>:       0.20 MB

     Dynamical RAM for                 psi:      29.47 MB

     Dynamical RAM for                hpsi:      29.47 MB

     Dynamical RAM for                spsi:      29.47 MB

     Dynamical RAM for      wfcinit/wfcrot:      29.64 MB

     Dynamical RAM for           addusdens:     772.26 MB

     Dynamical RAM for          addusforce:     842.90 MB

     Estimated static dynamical RAM per process >       1.35 GB

     Estimated max dynamical RAM per process >       2.30 GB

     Check: negative core charge=   -0.000006
     Generating pointlists ...
     new r_m :   0.1587 (alat units)  1.4998 (a.u.) for type    1
     new r_m :   0.0789 (alat units)  0.7461 (a.u.) for type    2
     new r_m :   0.1833 (alat units)  1.7325 (a.u.) for type    3
     new r_m :   0.0789 (alat units)  0.7461 (a.u.) for type    4

     Initial potential from superposition of free atoms

     starting charge     127.9928, renormalised to     128.0000
     Starting wfcs are   83 randomized atomic wfcs +    2 random wfcs
     Checking if some PAW data can be deallocated... 

     total cpu time spent up to now is        7.5 secs

     Self-consistent Calculation
[tb_dev] Currently allocated     1.27E+00 Mbytes, locked:    0 /   6
[tb_pin] Currently allocated     0.00E+00 Mbytes, locked:    0 /   0

     iteration #  1     ecut=    60.00 Ry     beta= 0.30
     Davidson diagonalization with overlap

---- Real-time Memory Report at c_bands before calling an iterative solver
          1950 MiB given to the printing process from OS
             0 MiB allocation reported by mallinfo(arena+hblkhd)
        912684 MiB available memory on the node where the printing process lives
     GPU memory used/free/total (MiB): 2068 / 79082 / 81151
------------------
     ethr =  1.00E-02,  avg # of iterations =  8.4

     total cpu time spent up to now is       16.7 secs

     total energy              =   -1664.68361399 Ry
     estimated scf accuracy    <       7.55125753 Ry

     total magnetization       =    14.00 Bohr mag/cell
     absolute magnetization    =    14.01 Bohr mag/cell
[tb_dev] Currently allocated     1.68E-04 Mbytes, locked:    0 /   2
[tb_pin] Currently allocated     0.00E+00 Mbytes, locked:    0 /   0

     iteration #  2     ecut=    60.00 Ry     beta= 0.30
     Davidson diagonalization with overlap

---- Real-time Memory Report at c_bands before calling an iterative solver
          2020 MiB given to the printing process from OS
             0 MiB allocation reported by mallinfo(arena+hblkhd)
        912608 MiB available memory on the node where the printing process lives
     GPU memory used/free/total (MiB): 2124 / 79026 / 81151
------------------
     ethr =  5.90E-03,  avg # of iterations =  2.0

     total cpu time spent up to now is       22.2 secs

     total energy              =   -1664.88915605 Ry
     estimated scf accuracy    <       1.69038007 Ry

     total magnetization       =    10.79 Bohr mag/cell
     absolute magnetization    =    10.80 Bohr mag/cell
[tb_dev] Currently allocated     1.68E-04 Mbytes, locked:    0 /   2
[tb_pin] Currently allocated     0.00E+00 Mbytes, locked:    0 /   0

     iteration #  3     ecut=    60.00 Ry     beta= 0.30
     Davidson diagonalization with overlap

---- Real-time Memory Report at c_bands before calling an iterative solver
          2038 MiB given to the printing process from OS
             0 MiB allocation reported by mallinfo(arena+hblkhd)
        912607 MiB available memory on the node where the printing process lives
     GPU memory used/free/total (MiB): 2124 / 79026 / 81151
------------------
     ethr =  1.32E-03,  avg # of iterations =  2.9

     total cpu time spent up to now is       28.2 secs

     total energy              =   -1665.23183305 Ry
     estimated scf accuracy    <       2.41256169 Ry

     total magnetization       =     4.06 Bohr mag/cell
     absolute magnetization    =     4.80 Bohr mag/cell
[tb_dev] Currently allocated     1.68E-04 Mbytes, locked:    0 /   2
[tb_pin] Currently allocated     0.00E+00 Mbytes, locked:    0 /   0

     iteration #  4     ecut=    60.00 Ry     beta= 0.30
     Davidson diagonalization with overlap

---- Real-time Memory Report at c_bands before calling an iterative solver
          2057 MiB given to the printing process from OS
             0 MiB allocation reported by mallinfo(arena+hblkhd)
        912614 MiB available memory on the node where the printing process lives
     GPU memory used/free/total (MiB): 2124 / 79026 / 81151
------------------
     ethr =  1.32E-03,  avg # of iterations =  1.1

     total cpu time spent up to now is       33.2 secs

     total energy              =   -1665.38691742 Ry
     estimated scf accuracy    <       0.65282096 Ry

     total magnetization       =     6.35 Bohr mag/cell
     absolute magnetization    =     6.55 Bohr mag/cell
[tb_dev] Currently allocated     1.68E-04 Mbytes, locked:    0 /   2
[tb_pin] Currently allocated     0.00E+00 Mbytes, locked:    0 /   0

     iteration #  5     ecut=    60.00 Ry     beta= 0.30
     Davidson diagonalization with overlap

---- Real-time Memory Report at c_bands before calling an iterative solver
          2058 MiB given to the printing process from OS
             0 MiB allocation reported by mallinfo(arena+hblkhd)
        912680 MiB available memory on the node where the printing process lives
     GPU memory used/free/total (MiB): 2124 / 79026 / 81151
------------------
     ethr =  5.10E-04,  avg # of iterations =  2.4

     total cpu time spent up to now is       38.8 secs

     total energy              =   -1665.49657201 Ry
     estimated scf accuracy    <       0.49825539 Ry

     total magnetization       =     3.07 Bohr mag/cell
     absolute magnetization    =     4.23 Bohr mag/cell
[tb_dev] Currently allocated     1.68E-04 Mbytes, locked:    0 /   2
[tb_pin] Currently allocated     0.00E+00 Mbytes, locked:    0 /   0

     iteration #  6     ecut=    60.00 Ry     beta= 0.30
     Davidson diagonalization with overlap

---- Real-time Memory Report at c_bands before calling an iterative solver
          2069 MiB given to the printing process from OS
             0 MiB allocation reported by mallinfo(arena+hblkhd)
        912677 MiB available memory on the node where the printing process lives
     GPU memory used/free/total (MiB): 2124 / 79026 / 81151
------------------
     ethr =  3.89E-04,  avg # of iterations =  1.8

     total cpu time spent up to now is       44.0 secs

     total energy              =   -1665.64725787 Ry
     estimated scf accuracy    <       0.42029942 Ry

     total magnetization       =     2.20 Bohr mag/cell
     absolute magnetization    =     3.63 Bohr mag/cell
[tb_dev] Currently allocated     1.68E-04 Mbytes, locked:    0 /   2
[tb_pin] Currently allocated     0.00E+00 Mbytes, locked:    0 /   0

     iteration #  7     ecut=    60.00 Ry     beta= 0.30
     Davidson diagonalization with overlap

---- Real-time Memory Report at c_bands before calling an iterative solver
          2075 MiB given to the printing process from OS
             0 MiB allocation reported by mallinfo(arena+hblkhd)
        912685 MiB available memory on the node where the printing process lives
     GPU memory used/free/total (MiB): 2124 / 79026 / 81151
------------------
     ethr =  3.28E-04,  avg # of iterations =  2.9

     total cpu time spent up to now is       49.9 secs

     total energy              =   -1665.58410833 Ry
     estimated scf accuracy    <       1.18876479 Ry

     total magnetization       =     2.34 Bohr mag/cell
     absolute magnetization    =     2.55 Bohr mag/cell
[tb_dev] Currently allocated     1.68E-04 Mbytes, locked:    0 /   2
[tb_pin] Currently allocated     0.00E+00 Mbytes, locked:    0 /   0

     iteration #  8     ecut=    60.00 Ry     beta= 0.30
     Davidson diagonalization with overlap

---- Real-time Memory Report at c_bands before calling an iterative solver
          2078 MiB given to the printing process from OS
             0 MiB allocation reported by mallinfo(arena+hblkhd)
        912700 MiB available memory on the node where the printing process lives
     GPU memory used/free/total (MiB): 2124 / 79026 / 81151
------------------
     ethr =  3.28E-04,  avg # of iterations =  2.0

     total cpu time spent up to now is       55.5 secs

     total energy              =   -1665.62325188 Ry
     estimated scf accuracy    <       0.26707176 Ry

     total magnetization       =     2.03 Bohr mag/cell
     absolute magnetization    =     2.63 Bohr mag/cell
[tb_dev] Currently allocated     1.68E-04 Mbytes, locked:    0 /   2
[tb_pin] Currently allocated     0.00E+00 Mbytes, locked:    0 /   0

     iteration #  9     ecut=    60.00 Ry     beta= 0.30
     Davidson diagonalization with overlap

---- Real-time Memory Report at c_bands before calling an iterative solver
          2083 MiB given to the printing process from OS
             0 MiB allocation reported by mallinfo(arena+hblkhd)
        912668 MiB available memory on the node where the printing process lives
     GPU memory used/free/total (MiB): 2124 / 79026 / 81151
------------------
     ethr =  2.09E-04,  avg # of iterations =  2.2

     total cpu time spent up to now is       61.3 secs

     total energy              =   -1665.62895940 Ry
     estimated scf accuracy    <       0.13321886 Ry

     total magnetization       =     2.07 Bohr mag/cell
     absolute magnetization    =     2.39 Bohr mag/cell
[tb_dev] Currently allocated     1.68E-04 Mbytes, locked:    0 /   2
[tb_pin] Currently allocated     0.00E+00 Mbytes, locked:    0 /   0

     iteration # 10     ecut=    60.00 Ry     beta= 0.30
     Davidson diagonalization with overlap

---- Real-time Memory Report at c_bands before calling an iterative solver
          2088 MiB given to the printing process from OS
             0 MiB allocation reported by mallinfo(arena+hblkhd)
        912693 MiB available memory on the node where the printing process lives
     GPU memory used/free/total (MiB): 2124 / 79026 / 81151
------------------
     c_bands:  1 eigenvalues not converged
     c_bands:  1 eigenvalues not converged
     c_bands:  1 eigenvalues not converged
     c_bands:  1 eigenvalues not converged
     ethr =  1.04E-04,  avg # of iterations =  7.3

     total cpu time spent up to now is       69.0 secs

     total energy              =   -1665.63057511 Ry
     estimated scf accuracy    <       0.04183295 Ry

     total magnetization       =     2.27 Bohr mag/cell
     absolute magnetization    =     2.36 Bohr mag/cell
[tb_dev] Currently allocated     1.68E-04 Mbytes, locked:    0 /   2
[tb_pin] Currently allocated     0.00E+00 Mbytes, locked:    0 /   0

     iteration # 11     ecut=    60.00 Ry     beta= 0.30
     Davidson diagonalization with overlap

---- Real-time Memory Report at c_bands before calling an iterative solver
          2093 MiB given to the printing process from OS
             0 MiB allocation reported by mallinfo(arena+hblkhd)
        912686 MiB available memory on the node where the printing process lives
     GPU memory used/free/total (MiB): 2124 / 79026 / 81151
------------------
     c_bands:  2 eigenvalues not converged
     c_bands:  1 eigenvalues not converged
     c_bands:  1 eigenvalues not converged
     c_bands:  1 eigenvalues not converged
     c_bands:  1 eigenvalues not converged
     c_bands:  1 eigenvalues not converged
     c_bands:  1 eigenvalues not converged
     c_bands:  1 eigenvalues not converged
     c_bands:  1 eigenvalues not converged
     c_bands:  1 eigenvalues not converged
     c_bands:  1 eigenvalues not converged
     c_bands:  1 eigenvalues not converged
     c_bands:  1 eigenvalues not converged
     c_bands:  1 eigenvalues not converged
     c_bands:  1 eigenvalues not converged
     c_bands:  1 eigenvalues not converged
     c_bands:  2 eigenvalues not converged
     c_bands:  2 eigenvalues not converged
     c_bands:  1 eigenvalues not converged
     c_bands:  1 eigenvalues not converged
     c_bands:  1 eigenvalues not converged
     c_bands:  1 eigenvalues not converged
     c_bands:  1 eigenvalues not converged
     c_bands:  1 eigenvalues not converged
     c_bands:  1 eigenvalues not converged
     c_bands:  1 eigenvalues not converged
     ethr =  3.27E-05,  avg # of iterations = 14.3

     total cpu time spent up to now is       79.8 secs

     total energy              =   -1665.62496223 Ry
     estimated scf accuracy    <       0.02408847 Ry

     total magnetization       =     2.32 Bohr mag/cell
     absolute magnetization    =     2.37 Bohr mag/cell
[tb_dev] Currently allocated     1.68E-04 Mbytes, locked:    0 /   2
[tb_pin] Currently allocated     0.00E+00 Mbytes, locked:    0 /   0

     iteration # 12     ecut=    60.00 Ry     beta= 0.30
     Davidson diagonalization with overlap

---- Real-time Memory Report at c_bands before calling an iterative solver
          2093 MiB given to the printing process from OS
             0 MiB allocation reported by mallinfo(arena+hblkhd)
        912691 MiB available memory on the node where the printing process lives
     GPU memory used/free/total (MiB): 2124 / 79026 / 81151
------------------
     c_bands:  1 eigenvalues not converged
     c_bands:  1 eigenvalues not converged
     c_bands:  1 eigenvalues not converged
     c_bands:  1 eigenvalues not converged
     c_bands:  1 eigenvalues not converged
     c_bands:  1 eigenvalues not converged
     c_bands:  1 eigenvalues not converged
     c_bands:  1 eigenvalues not converged
     c_bands:  1 eigenvalues not converged
     c_bands:  1 eigenvalues not converged
     c_bands:  1 eigenvalues not converged
     ethr =  1.88E-05,  avg # of iterations = 10.5

     total cpu time spent up to now is       89.3 secs

     total energy              =   -1665.62903543 Ry
     estimated scf accuracy    <       0.03642643 Ry

     total magnetization       =     2.22 Bohr mag/cell
     absolute magnetization    =     2.27 Bohr mag/cell
[tb_dev] Currently allocated     1.68E-04 Mbytes, locked:    0 /   2
[tb_pin] Currently allocated     0.00E+00 Mbytes, locked:    0 /   0

     iteration # 13     ecut=    60.00 Ry     beta= 0.30
     Davidson diagonalization with overlap

---- Real-time Memory Report at c_bands before calling an iterative solver
          2093 MiB given to the printing process from OS
             0 MiB allocation reported by mallinfo(arena+hblkhd)
        912689 MiB available memory on the node where the printing process lives
     GPU memory used/free/total (MiB): 2124 / 79026 / 81151
------------------
     ethr =  1.88E-05,  avg # of iterations =  2.2

     total cpu time spent up to now is       94.9 secs

     total energy              =   -1665.62896701 Ry
     estimated scf accuracy    <       0.00992266 Ry

     total magnetization       =     2.23 Bohr mag/cell
     absolute magnetization    =     2.27 Bohr mag/cell
[tb_dev] Currently allocated     1.68E-04 Mbytes, locked:    0 /   2
[tb_pin] Currently allocated     0.00E+00 Mbytes, locked:    0 /   0

     iteration # 14     ecut=    60.00 Ry     beta= 0.30
     Davidson diagonalization with overlap

---- Real-time Memory Report at c_bands before calling an iterative solver
          2093 MiB given to the printing process from OS
             0 MiB allocation reported by mallinfo(arena+hblkhd)
        912746 MiB available memory on the node where the printing process lives
     GPU memory used/free/total (MiB): 2124 / 79026 / 81151
------------------
     c_bands:  1 eigenvalues not converged
     c_bands:  1 eigenvalues not converged
     c_bands:  1 eigenvalues not converged
     c_bands:  1 eigenvalues not converged
     c_bands:  1 eigenvalues not converged
     c_bands:  1 eigenvalues not converged
     c_bands:  1 eigenvalues not converged
     c_bands:  1 eigenvalues not converged
     c_bands:  1 eigenvalues not converged
     c_bands:  1 eigenvalues not converged
     c_bands:  1 eigenvalues not converged
     ethr =  7.75E-06,  avg # of iterations = 12.3

     total cpu time spent up to now is      105.0 secs

     total energy              =   -1665.62931762 Ry
     estimated scf accuracy    <       0.00367011 Ry

     total magnetization       =     2.25 Bohr mag/cell
     absolute magnetization    =     2.29 Bohr mag/cell
[tb_dev] Currently allocated     1.68E-04 Mbytes, locked:    0 /   2
[tb_pin] Currently allocated     0.00E+00 Mbytes, locked:    0 /   0

     iteration # 15     ecut=    60.00 Ry     beta= 0.30
     Davidson diagonalization with overlap

---- Real-time Memory Report at c_bands before calling an iterative solver
          2093 MiB given to the printing process from OS
             0 MiB allocation reported by mallinfo(arena+hblkhd)
        912704 MiB available memory on the node where the printing process lives
     GPU memory used/free/total (MiB): 2124 / 79026 / 81151
------------------
     c_bands:  1 eigenvalues not converged
     c_bands:  1 eigenvalues not converged
     c_bands:  1 eigenvalues not converged
     c_bands:  1 eigenvalues not converged
     c_bands:  1 eigenvalues not converged
     c_bands:  1 eigenvalues not converged
     c_bands:  1 eigenvalues not converged
     c_bands:  1 eigenvalues not converged
     c_bands:  1 eigenvalues not converged
     c_bands:  1 eigenvalues not converged
     c_bands:  1 eigenvalues not converged
     c_bands:  1 eigenvalues not converged
     c_bands:  1 eigenvalues not converged
     c_bands:  1 eigenvalues not converged
     c_bands:  1 eigenvalues not converged
     c_bands:  2 eigenvalues not converged
     c_bands:  1 eigenvalues not converged
     c_bands:  1 eigenvalues not converged
     c_bands:  1 eigenvalues not converged
     c_bands:  2 eigenvalues not converged
     c_bands:  1 eigenvalues not converged
     c_bands:  1 eigenvalues not converged
     c_bands:  1 eigenvalues not converged
     c_bands:  1 eigenvalues not converged
     c_bands:  1 eigenvalues not converged
     c_bands:  1 eigenvalues not converged
     c_bands:  1 eigenvalues not converged
     c_bands:  1 eigenvalues not converged
     c_bands:  1 eigenvalues not converged
     c_bands:  1 eigenvalues not converged
     c_bands:  1 eigenvalues not converged
     c_bands:  1 eigenvalues not converged
     c_bands:  1 eigenvalues not converged
     c_bands:  2 eigenvalues not converged
     ethr =  2.87E-06,  avg # of iterations = 16.0

     total cpu time spent up to now is      117.0 secs

     total energy              =   -1665.62987758 Ry
     estimated scf accuracy    <       0.00179768 Ry

     total magnetization       =     2.36 Bohr mag/cell
     absolute magnetization    =     2.39 Bohr mag/cell
[tb_dev] Currently allocated     1.68E-04 Mbytes, locked:    0 /   2
[tb_pin] Currently allocated     0.00E+00 Mbytes, locked:    0 /   0

     iteration # 16     ecut=    60.00 Ry     beta= 0.30
     Davidson diagonalization with overlap

---- Real-time Memory Report at c_bands before calling an iterative solver
          2094 MiB given to the printing process from OS
             0 MiB allocation reported by mallinfo(arena+hblkhd)
        912688 MiB available memory on the node where the printing process lives
     GPU memory used/free/total (MiB): 2124 / 79026 / 81151
------------------
     c_bands:  1 eigenvalues not converged
     c_bands:  1 eigenvalues not converged
     c_bands:  1 eigenvalues not converged
     c_bands:  1 eigenvalues not converged
     c_bands:  1 eigenvalues not converged
     c_bands:  1 eigenvalues not converged
     ethr =  1.40E-06,  avg # of iterations =  4.2

     total cpu time spent up to now is      123.6 secs

     total energy              =   -1665.63000369 Ry
     estimated scf accuracy    <       0.00052627 Ry

     total magnetization       =     2.30 Bohr mag/cell
     absolute magnetization    =     2.35 Bohr mag/cell
[tb_dev] Currently allocated     1.68E-04 Mbytes, locked:    0 /   2
[tb_pin] Currently allocated     0.00E+00 Mbytes, locked:    0 /   0

     iteration # 17     ecut=    60.00 Ry     beta= 0.30
     Davidson diagonalization with overlap

---- Real-time Memory Report at c_bands before calling an iterative solver
          2094 MiB given to the printing process from OS
             0 MiB allocation reported by mallinfo(arena+hblkhd)
        912705 MiB available memory on the node where the printing process lives
     GPU memory used/free/total (MiB): 2124 / 79026 / 81151
------------------
     c_bands:  1 eigenvalues not converged
     ethr =  4.11E-07,  avg # of iterations =  5.9

     total cpu time spent up to now is      131.1 secs

     total energy              =   -1665.63004828 Ry
     estimated scf accuracy    <       0.00048966 Ry

     total magnetization       =     2.30 Bohr mag/cell
     absolute magnetization    =     2.35 Bohr mag/cell
[tb_dev] Currently allocated     1.68E-04 Mbytes, locked:    0 /   2
[tb_pin] Currently allocated     0.00E+00 Mbytes, locked:    0 /   0

     iteration # 18     ecut=    60.00 Ry     beta= 0.30
     Davidson diagonalization with overlap

---- Real-time Memory Report at c_bands before calling an iterative solver
          2094 MiB given to the printing process from OS
             0 MiB allocation reported by mallinfo(arena+hblkhd)
        912691 MiB available memory on the node where the printing process lives
     GPU memory used/free/total (MiB): 2124 / 79026 / 81151
------------------
     ethr =  3.83E-07,  avg # of iterations =  2.0

     total cpu time spent up to now is      136.5 secs

     total energy              =   -1665.63009794 Ry
     estimated scf accuracy    <       0.00025979 Ry

     total magnetization       =     2.30 Bohr mag/cell
     absolute magnetization    =     2.35 Bohr mag/cell
[tb_dev] Currently allocated     1.68E-04 Mbytes, locked:    0 /   2
[tb_pin] Currently allocated     0.00E+00 Mbytes, locked:    0 /   0

     iteration # 19     ecut=    60.00 Ry     beta= 0.30
     Davidson diagonalization with overlap

---- Real-time Memory Report at c_bands before calling an iterative solver
          2094 MiB given to the printing process from OS
             0 MiB allocation reported by mallinfo(arena+hblkhd)
        912692 MiB available memory on the node where the printing process lives
     GPU memory used/free/total (MiB): 2124 / 79026 / 81151
------------------
     ethr =  2.03E-07,  avg # of iterations =  4.1

     total cpu time spent up to now is      143.0 secs

     total energy              =   -1665.63007002 Ry
     estimated scf accuracy    <       0.00019434 Ry

     total magnetization       =     2.30 Bohr mag/cell
     absolute magnetization    =     2.35 Bohr mag/cell
[tb_dev] Currently allocated     1.68E-04 Mbytes, locked:    0 /   2
[tb_pin] Currently allocated     0.00E+00 Mbytes, locked:    0 /   0

     iteration # 20     ecut=    60.00 Ry     beta= 0.30
     Davidson diagonalization with overlap

---- Real-time Memory Report at c_bands before calling an iterative solver
          2094 MiB given to the printing process from OS
             0 MiB allocation reported by mallinfo(arena+hblkhd)
        912742 MiB available memory on the node where the printing process lives
     GPU memory used/free/total (MiB): 2124 / 79026 / 81151
------------------
     c_bands:  1 eigenvalues not converged
     ethr =  1.52E-07,  avg # of iterations =  3.1

     total cpu time spent up to now is      149.2 secs

     total energy              =   -1665.63009807 Ry
     estimated scf accuracy    <       0.00006638 Ry

     total magnetization       =     2.30 Bohr mag/cell
     absolute magnetization    =     2.34 Bohr mag/cell
[tb_dev] Currently allocated     1.68E-04 Mbytes, locked:    0 /   2
[tb_pin] Currently allocated     0.00E+00 Mbytes, locked:    0 /   0

     iteration # 21     ecut=    60.00 Ry     beta= 0.30
     Davidson diagonalization with overlap

---- Real-time Memory Report at c_bands before calling an iterative solver
          2096 MiB given to the printing process from OS
             0 MiB allocation reported by mallinfo(arena+hblkhd)
        912752 MiB available memory on the node where the printing process lives
     GPU memory used/free/total (MiB): 2124 / 79026 / 81151
------------------
     ethr =  5.19E-08,  avg # of iterations =  6.0

     total cpu time spent up to now is      156.5 secs

     total energy              =   -1665.63010362 Ry
     estimated scf accuracy    <       0.00005944 Ry

     total magnetization       =     2.30 Bohr mag/cell
     absolute magnetization    =     2.34 Bohr mag/cell
[tb_dev] Currently allocated     1.68E-04 Mbytes, locked:    0 /   2
[tb_pin] Currently allocated     0.00E+00 Mbytes, locked:    0 /   0

     iteration # 22     ecut=    60.00 Ry     beta= 0.30
     Davidson diagonalization with overlap

---- Real-time Memory Report at c_bands before calling an iterative solver
          2098 MiB given to the printing process from OS
             0 MiB allocation reported by mallinfo(arena+hblkhd)
        912738 MiB available memory on the node where the printing process lives
     GPU memory used/free/total (MiB): 2124 / 79026 / 81151
------------------
     ethr =  4.64E-08,  avg # of iterations =  2.2

     total cpu time spent up to now is      162.1 secs

     total energy              =   -1665.63009298 Ry
     estimated scf accuracy    <       0.00003967 Ry

     total magnetization       =     2.30 Bohr mag/cell
     absolute magnetization    =     2.34 Bohr mag/cell
[tb_dev] Currently allocated     1.68E-04 Mbytes, locked:    0 /   2
[tb_pin] Currently allocated     0.00E+00 Mbytes, locked:    0 /   0

     iteration # 23     ecut=    60.00 Ry     beta= 0.30
     Davidson diagonalization with overlap

---- Real-time Memory Report at c_bands before calling an iterative solver
          2098 MiB given to the printing process from OS
             0 MiB allocation reported by mallinfo(arena+hblkhd)
        912753 MiB available memory on the node where the printing process lives
     GPU memory used/free/total (MiB): 2124 / 79026 / 81151
------------------
     c_bands:  1 eigenvalues not converged
     ethr =  3.10E-08,  avg # of iterations =  2.9

     total cpu time spent up to now is      168.2 secs

     total energy              =   -1665.63009472 Ry
     estimated scf accuracy    <       0.00001349 Ry

     total magnetization       =     2.30 Bohr mag/cell
     absolute magnetization    =     2.34 Bohr mag/cell
[tb_dev] Currently allocated     1.68E-04 Mbytes, locked:    0 /   2
[tb_pin] Currently allocated     0.00E+00 Mbytes, locked:    0 /   0

     iteration # 24     ecut=    60.00 Ry     beta= 0.30
     Davidson diagonalization with overlap

---- Real-time Memory Report at c_bands before calling an iterative solver
          2098 MiB given to the printing process from OS
             0 MiB allocation reported by mallinfo(arena+hblkhd)
        912762 MiB available memory on the node where the printing process lives
     GPU memory used/free/total (MiB): 2124 / 79026 / 81151
------------------
     ethr =  1.05E-08,  avg # of iterations =  4.1

     total cpu time spent up to now is      174.8 secs

     total energy              =   -1665.63009780 Ry
     estimated scf accuracy    <       0.00000508 Ry

     total magnetization       =     2.30 Bohr mag/cell
     absolute magnetization    =     2.34 Bohr mag/cell
[tb_dev] Currently allocated     1.68E-04 Mbytes, locked:    0 /   2
[tb_pin] Currently allocated     0.00E+00 Mbytes, locked:    0 /   0

     iteration # 25     ecut=    60.00 Ry     beta= 0.30
     Davidson diagonalization with overlap

---- Real-time Memory Report at c_bands before calling an iterative solver
          2100 MiB given to the printing process from OS
             0 MiB allocation reported by mallinfo(arena+hblkhd)
        912740 MiB available memory on the node where the printing process lives
     GPU memory used/free/total (MiB): 2124 / 79026 / 81151
------------------
     ethr =  3.97E-09,  avg # of iterations =  5.3

     total cpu time spent up to now is      182.0 secs

     total energy              =   -1665.63009909 Ry
     estimated scf accuracy    <       0.00000202 Ry

     total magnetization       =     2.30 Bohr mag/cell
     absolute magnetization    =     2.34 Bohr mag/cell
[tb_dev] Currently allocated     1.68E-04 Mbytes, locked:    0 /   2
[tb_pin] Currently allocated     0.00E+00 Mbytes, locked:    0 /   0

     iteration # 26     ecut=    60.00 Ry     beta= 0.30
     Davidson diagonalization with overlap

---- Real-time Memory Report at c_bands before calling an iterative solver
          2100 MiB given to the printing process from OS
             0 MiB allocation reported by mallinfo(arena+hblkhd)
        912761 MiB available memory on the node where the printing process lives
     GPU memory used/free/total (MiB): 2124 / 79026 / 81151
------------------
     ethr =  1.58E-09,  avg # of iterations =  2.3

     total cpu time spent up to now is      187.7 secs

     total energy              =   -1665.63009924 Ry
     estimated scf accuracy    <       0.00000053 Ry

     total magnetization       =     2.30 Bohr mag/cell
     absolute magnetization    =     2.34 Bohr mag/cell
[tb_dev] Currently allocated     1.68E-04 Mbytes, locked:    0 /   2
[tb_pin] Currently allocated     0.00E+00 Mbytes, locked:    0 /   0

     iteration # 27     ecut=    60.00 Ry     beta= 0.30
     Davidson diagonalization with overlap

---- Real-time Memory Report at c_bands before calling an iterative solver
          2100 MiB given to the printing process from OS
             0 MiB allocation reported by mallinfo(arena+hblkhd)
        912725 MiB available memory on the node where the printing process lives
     GPU memory used/free/total (MiB): 2124 / 79026 / 81151
------------------
     ethr =  4.18E-10,  avg # of iterations =  5.7

     total cpu time spent up to now is      195.2 secs

     total energy              =   -1665.63009936 Ry
     estimated scf accuracy    <       0.00000024 Ry

     total magnetization       =     2.30 Bohr mag/cell
     absolute magnetization    =     2.34 Bohr mag/cell
[tb_dev] Currently allocated     1.68E-04 Mbytes, locked:    0 /   2
[tb_pin] Currently allocated     0.00E+00 Mbytes, locked:    0 /   0

     iteration # 28     ecut=    60.00 Ry     beta= 0.30
     Davidson diagonalization with overlap

---- Real-time Memory Report at c_bands before calling an iterative solver
          2100 MiB given to the printing process from OS
             0 MiB allocation reported by mallinfo(arena+hblkhd)
        912750 MiB available memory on the node where the printing process lives
     GPU memory used/free/total (MiB): 2124 / 79026 / 81151
------------------
     ethr =  1.87E-10,  avg # of iterations =  4.6
 
     Magnetic moment per site  (integrated on atomic sphere of radius R)
     atom   1 (R=0.159)  charge= 14.0981  magn=  0.5950
     atom   2 (R=0.159)  charge= 14.0999  magn=  0.5897
     atom   3 (R=0.159)  charge= 14.0990  magn=  0.5885
     atom   4 (R=0.079)  charge=  1.8578  magn=  0.0284
     atom   5 (R=0.079)  charge=  1.8577  magn=  0.0271
     atom   6 (R=0.079)  charge=  1.8584  magn=  0.0269
     atom   7 (R=0.079)  charge=  1.8597  magn=  0.0227
     atom   8 (R=0.079)  charge=  1.8599  magn=  0.0243
     atom   9 (R=0.079)  charge=  1.8595  magn=  0.0239
     atom  10 (R=0.183)  charge=  7.8535  magn=  0.0001
     atom  11 (R=0.079)  charge=  1.9140  magn=  0.0006
     atom  12 (R=0.079)  charge=  0.3962  magn=  0.0000
     atom  13 (R=0.079)  charge=  0.3910  magn=  0.0000
     atom  14 (R=0.079)  charge=  1.9125  magn=  0.0006
     atom  15 (R=0.079)  charge=  0.4008  magn=  0.0000
     atom  16 (R=0.079)  charge=  0.3908  magn=  0.0000
     atom  17 (R=0.079)  charge=  1.9104  magn=  0.0005
     atom  18 (R=0.079)  charge=  0.4030  magn=  0.0000
     atom  19 (R=0.079)  charge=  0.3921  magn=  0.0000
     atom  20 (R=0.079)  charge=  1.9128  magn=  0.0005
     atom  21 (R=0.079)  charge=  0.4005  magn=  0.0000
     atom  22 (R=0.079)  charge=  0.3932  magn=  0.0000

     total cpu time spent up to now is      202.0 secs

     End of self-consistent calculation

 ------ SPIN UP ------------


          k = 0.0000 0.0000 0.0000 ( 11393 PWs)   bands (ev):

   -91.6374 -91.6289 -91.6256 -54.8819 -54.8780 -54.8738 -54.8734 -54.8636
   -54.8539 -54.8496 -54.8364 -54.8360 -48.4778 -20.4301 -20.3939 -20.3336
   -18.0621 -17.4525 -16.6806 -16.1400 -15.1395 -13.5005 -13.4945 -13.4304
   -13.4225 -13.2422  -5.7653  -5.5790  -4.2874  -4.0537  -2.0701  -1.7021
    -1.3026  -1.2719  -1.2433  -1.2171  -1.1754  -0.9422  -0.9375  -0.8532
    -0.8204  -0.7963  -0.7644   0.1319   0.4619   0.7578   0.7950   0.8287
     0.8436   1.1540   1.1655   1.4555   2.0552   2.1983   2.5443   2.5494
     2.5768   2.5789   2.7397   2.7481   3.6164   3.6201   3.6403   3.6476
     3.7974   5.7088   5.7164   5.7290   5.7419   6.3762   6.4695   6.4745
     8.9687  10.4110  11.3096  11.6480  12.6170  12.7619  13.2131  13.3034
    13.9008  14.3317  14.5791  14.7299  15.1317

     occupation numbers 
     1.0000   1.0000   1.0000   1.0000   1.0000   1.0000   1.0000   1.0000
     1.0000   1.0000   1.0000   1.0000   1.0000   1.0000   1.0000   1.0000
     1.0000   1.0000   1.0000   1.0000   1.0000   1.0000   1.0000   1.0000
     1.0000   1.0000   1.0000   1.0000   1.0000   1.0000   1.0000   1.0000
     1.0000   1.0000   1.0000   1.0000   1.0000   1.0000   1.0000   1.0000
     1.0000   1.0000   1.0000   1.0000   1.0000   1.0000   1.0000   1.0000
     1.0000   1.0000   1.0000   1.0000   1.0000   1.0000   1.0000   1.0000
     1.0000   1.0000   1.0000   1.0000   1.0183   1.0190   1.0234   1.0251
     1.0723   0.0000   0.0000   0.0000   0.0000   0.0000   0.0000   0.0000
     0.0000   0.0000   0.0000   0.0000   0.0000   0.0000   0.0000   0.0000
     0.0000   0.0000   0.0000   0.0000   0.0000

          k = 0.0000 0.0000-0.2526 ( 11446 PWs)   bands (ev):

   -91.6374 -91.6289 -91.6256 -54.8819 -54.8780 -54.8738 -54.8734 -54.8637
   -54.8540 -54.8497 -54.8364 -54.8360 -48.4778 -20.4302 -20.3941 -20.3338
   -18.0620 -17.4525 -16.6811 -16.1400 -15.1384 -13.5005 -13.4945 -13.4304
   -13.4225 -13.2432  -5.7641  -5.5720  -4.2981  -4.0538  -2.0802  -1.6862
    -1.3832  -1.2736  -1.2417  -1.2201  -1.1665  -0.9418  -0.9375  -0.8525
    -0.8225  -0.7675  -0.6950   0.1475   0.4763   0.7555   0.7860   0.8282
     0.8465   1.1123   1.1660   1.4964   2.0463   2.1194   2.5443   2.5486
     2.5768   2.5789   2.7397   2.7481   3.6169   3.6209   3.6400   3.6472
     3.8170   5.7081   5.7165   5.7292   5.7406   6.4684   6.4738   6.5049
     8.6589  10.7041  11.2222  11.9766  12.2918  12.7299  13.2400  13.2804
    13.8513  14.3181  14.5709  14.9032  15.0038

     occupation numbers 
     1.0000   1.0000   1.0000   1.0000   1.0000   1.0000   1.0000   1.0000
     1.0000   1.0000   1.0000   1.0000   1.0000   1.0000   1.0000   1.0000
     1.0000   1.0000   1.0000   1.0000   1.0000   1.0000   1.0000   1.0000
     1.0000   1.0000   1.0000   1.0000   1.0000   1.0000   1.0000   1.0000
     1.0000   1.0000   1.0000   1.0000   1.0000   1.0000   1.0000   1.0000
     1.0000   1.0000   1.0000   1.0000   1.0000   1.0000   1.0000   1.0000
     1.0000   1.0000   1.0000   1.0000   1.0000   1.0000   1.0000   1.0000
     1.0000   1.0000   1.0000   1.0000   1.0184   1.0192   1.0233   1.0250
     1.0774   0.0000   0.0000   0.0000   0.0000   0.0000   0.0000   0.0000
     0.0000   0.0000   0.0000   0.0000   0.0000   0.0000   0.0000   0.0000
     0.0000   0.0000   0.0000   0.0000   0.0000

          k = 0.0000 0.1925 0.0000 ( 11360 PWs)   bands (ev):

   -91.6372 -91.6289 -91.6258 -54.8869 -54.8820 -54.8693 -54.8646 -54.8615
   -54.8538 -54.8499 -54.8411 -54.8371 -48.4778 -20.4315 -20.3944 -20.3335
   -18.0217 -17.4948 -16.6488 -16.1752 -15.0366 -13.6188 -13.5395 -13.4375
   -13.3861 -13.2444  -5.8662  -5.4552  -4.3215  -4.0187  -2.0687  -1.7439
    -1.6059  -1.3973  -1.2616  -1.2047  -1.1098  -1.0633  -0.8799  -0.8646
    -0.7043  -0.4377  -0.2665   0.0134   0.4952   0.5182   0.6029   0.6765
     0.7603   1.4485   1.4648   1.5551   1.9043   2.0023   2.0180   2.4304
     2.6270   2.6945   2.9734   3.1732   3.3779   3.3901   3.7208   3.7886
     3.8534   5.7086   5.7514   5.7686   5.8236   6.1847   6.3910   6.7304
     9.2282  10.4544  11.2028  11.6204  12.1816  12.4528  12.9850  13.4406
    13.7471  14.2134  14.6645  14.8843  15.1847

     occupation numbers 
     1.0000   1.0000   1.0000   1.0000   1.0000   1.0000   1.0000   1.0000
     1.0000   1.0000   1.0000   1.0000   1.0000   1.0000   1.0000   1.0000
     1.0000   1.0000   1.0000   1.0000   1.0000   1.0000   1.0000   1.0000
     1.0000   1.0000   1.0000   1.0000   1.0000   1.0000   1.0000   1.0000
     1.0000   1.0000   1.0000   1.0000   1.0000   1.0000   1.0000   1.0000
     1.0000   1.0000   1.0000   1.0000   1.0000   1.0000   1.0000   1.0000
     1.0000   1.0000   1.0000   1.0000   1.0000   1.0000   1.0000   1.0000
     1.0000   1.0000   1.0000   1.0000   1.0006   1.0007   1.0469   1.0697
     1.0830   0.0000   0.0000   0.0000   0.0000   0.0000   0.0000   0.0000
     0.0000   0.0000   0.0000   0.0000   0.0000   0.0000   0.0000   0.0000
     0.0000   0.0000   0.0000   0.0000   0.0000

          k = 0.0000 0.1925-0.2526 ( 11384 PWs)   bands (ev):

   -91.6372 -91.6289 -91.6258 -54.8870 -54.8820 -54.8694 -54.8646 -54.8616
   -54.8538 -54.8499 -54.8411 -54.8371 -48.4778 -20.4315 -20.3944 -20.3336
   -18.0216 -17.4948 -16.6492 -16.1752 -15.0357 -13.6188 -13.5395 -13.4375
   -13.3861 -13.2452  -5.8646  -5.4502  -4.3289  -4.0200  -2.0757  -1.7401
    -1.6037  -1.3956  -1.3071  -1.2360  -1.1059  -1.0428  -0.8745  -0.8337
    -0.6736  -0.4283  -0.2759   0.0335   0.4913   0.5170   0.5995   0.6822
     0.7611   1.4146   1.4863   1.5634   1.9063   1.9728   2.0219   2.3975
     2.6270   2.6946   2.9735   3.1719   3.3778   3.3903   3.7216   3.7892
     3.8698   5.7079   5.7510   5.7694   5.8220   6.1628   6.3965   6.8494
     8.9482  10.7801  10.9580  12.0307  12.0853  12.4471  12.8050  13.4323
    13.7631  14.0919  14.6993  14.9448  15.1314

     occupation numbers 
     1.0000   1.0000   1.0000   1.0000   1.0000   1.0000   1.0000   1.0000
     1.0000   1.0000   1.0000   1.0000   1.0000   1.0000   1.0000   1.0000
     1.0000   1.0000   1.0000   1.0000   1.0000   1.0000   1.0000   1.0000
     1.0000   1.0000   1.0000   1.0000   1.0000   1.0000   1.0000   1.0000
     1.0000   1.0000   1.0000   1.0000   1.0000   1.0000   1.0000   1.0000
     1.0000   1.0000   1.0000   1.0000   1.0000   1.0000   1.0000   1.0000
     1.0000   1.0000   1.0000   1.0000   1.0000   1.0000   1.0000   1.0000
     1.0000   1.0000   1.0000   1.0000   1.0006   1.0007   1.0471   1.0699
     1.0832   0.0000   0.0000   0.0000   0.0000   0.0000   0.0000   0.0000
     0.0000   0.0000   0.0000   0.0000   0.0000   0.0000   0.0000   0.0000
     0.0000   0.0000   0.0000   0.0000   0.0000

          k = 0.0000 0.3849 0.0000 ( 11350 PWs)   bands (ev):

   -91.6368 -91.6288 -91.6263 -54.8923 -54.8798 -54.8662 -54.8577 -54.8553
   -54.8531 -54.8517 -54.8499 -54.8402 -48.4777 -20.4343 -20.3953 -20.3335
   -17.9136 -17.6066 -16.5642 -16.2666 -14.7504 -13.9315 -13.5841 -13.4833
   -13.3262 -13.2545  -5.9765  -5.2995  -4.3752  -3.9645  -2.1186  -2.0098
    -1.7217  -1.3033  -1.2578  -1.2071  -1.0118  -0.9066  -0.8281  -0.7121
    -0.5822  -0.2432  -0.1996   0.0756   0.3441   0.4022   0.4871   0.7568
     0.8989   0.9354   1.3813   1.4351   1.7498   1.9631   2.1352   2.7204
     2.7267   3.0461   3.1153   3.1234   3.1597   3.5348   3.5742   3.8360
     3.8430   5.6890   5.7014   5.7530   5.7668   6.1476   6.1706   7.5432
     9.6658  10.1765  11.1809  11.3963  11.7354  12.1607  12.7284  13.0754
    13.4883  14.2765  14.6847  14.7993  15.0945

     occupation numbers 
     1.0000   1.0000   1.0000   1.0000   1.0000   1.0000   1.0000   1.0000
     1.0000   1.0000   1.0000   1.0000   1.0000   1.0000   1.0000   1.0000
     1.0000   1.0000   1.0000   1.0000   1.0000   1.0000   1.0000   1.0000
     1.0000   1.0000   1.0000   1.0000   1.0000   1.0000   1.0000   1.0000
     1.0000   1.0000   1.0000   1.0000   1.0000   1.0000   1.0000   1.0000
     1.0000   1.0000   1.0000   1.0000   1.0000   1.0000   1.0000   1.0000
     1.0000   1.0000   1.0000   1.0000   1.0000   1.0000   1.0000   1.0000
     1.0000   1.0000   1.0000   1.0000   1.0000   1.0068   1.0113   1.0811
     1.0821   0.0000   0.0000   0.0000   0.0000   0.0000   0.0000   0.0000
     0.0000   0.0000   0.0000   0.0000   0.0000   0.0000   0.0000   0.0000
     0.0000   0.0000   0.0000   0.0000   0.0000

          k = 0.0000 0.3849-0.2526 ( 11352 PWs)   bands (ev):

   -91.6368 -91.6288 -91.6263 -54.8922 -54.8798 -54.8662 -54.8577 -54.8553
   -54.8532 -54.8517 -54.8499 -54.8402 -48.4777 -20.4343 -20.3953 -20.3336
   -17.9136 -17.6066 -16.5645 -16.2666 -14.7498 -13.9314 -13.5840 -13.4833
   -13.3263 -13.2550  -5.9756  -5.2971  -4.3774  -3.9667  -2.1294  -2.0058
    -1.7122  -1.3184  -1.2447  -1.2076  -1.0490  -0.8865  -0.8080  -0.7134
    -0.5865  -0.2405  -0.1940   0.0783   0.3477   0.4048   0.4829   0.7579
     0.8994   0.9486   1.3814   1.4276   1.7421   1.9500   2.1342   2.7188
     2.7249   3.0461   3.1148   3.1235   3.1595   3.5321   3.5754   3.8396
     3.8463   5.6757   5.7015   5.7525   5.7653   6.1473   6.1776   7.6005
     9.5432  10.1748  11.1464  11.4753  11.6987  12.4287  12.7780  12.9707
    13.4497  14.1597  14.5071  14.8480  15.2057

     occupation numbers 
     1.0000   1.0000   1.0000   1.0000   1.0000   1.0000   1.0000   1.0000
     1.0000   1.0000   1.0000   1.0000   1.0000   1.0000   1.0000   1.0000
     1.0000   1.0000   1.0000   1.0000   1.0000   1.0000   1.0000   1.0000
     1.0000   1.0000   1.0000   1.0000   1.0000   1.0000   1.0000   1.0000
     1.0000   1.0000   1.0000   1.0000   1.0000   1.0000   1.0000   1.0000
     1.0000   1.0000   1.0000   1.0000   1.0000   1.0000   1.0000   1.0000
     1.0000   1.0000   1.0000   1.0000   1.0000   1.0000   1.0000   1.0000
     1.0000   1.0000   1.0000   1.0000   1.0000   1.0066   1.0114   1.0816
     1.0824   0.0000   0.0000   0.0000   0.0000   0.0000   0.0000   0.0000
     0.0000   0.0000   0.0000   0.0000   0.0000   0.0000   0.0000   0.0000
     0.0000   0.0000   0.0000   0.0000   0.0000

          k = 0.0000-0.5774 0.0000 ( 11352 PWs)   bands (ev):

   -91.6366 -91.6287 -91.6266 -54.8942 -54.8714 -54.8673 -54.8651 -54.8538
   -54.8526 -54.8500 -54.8486 -54.8433 -48.4777 -20.4358 -20.3957 -20.3335
   -17.7963 -17.7257 -16.4892 -16.3450 -14.3503 -14.3440 -13.6014 -13.5071
   -13.2831 -13.2778  -6.0183  -5.2348  -4.3988  -3.9416  -2.2350  -2.0357
    -1.7482  -1.3472  -1.2986  -0.9806  -0.8454  -0.8005  -0.7274  -0.5308
    -0.4312  -0.3776  -0.3004  -0.2123   0.2591   0.2650   0.4504   0.8138
     0.8210   0.8472   1.2708   1.4102   1.8571   1.9648   2.6254   2.6452
     2.7245   2.9961   3.0713   3.0747   3.4293   3.5724   3.5860   3.7463
     3.7625   5.5409   5.5567   5.7613   5.8945   5.9310   6.3483   8.1479
     9.3914  10.4178  10.9027  11.3036  11.5625  12.3088  12.4138  13.0348
    13.3702  14.1592  14.5959  14.6189  15.1579

     occupation numbers 
     1.0000   1.0000   1.0000   1.0000   1.0000   1.0000   1.0000   1.0000
     1.0000   1.0000   1.0000   1.0000   1.0000   1.0000   1.0000   1.0000
     1.0000   1.0000   1.0000   1.0000   1.0000   1.0000   1.0000   1.0000
     1.0000   1.0000   1.0000   1.0000   1.0000   1.0000   1.0000   1.0000
     1.0000   1.0000   1.0000   1.0000   1.0000   1.0000   1.0000   1.0000
     1.0000   1.0000   1.0000   1.0000   1.0000   1.0000   1.0000   1.0000
     1.0000   1.0000   1.0000   1.0000   1.0000   1.0000   1.0000   1.0000
     1.0000   1.0000   1.0000   1.0000   1.0014   1.0110   1.0130   1.0556
     1.0612   0.0000   0.0000   0.0000   0.0000   0.0000   0.0000   0.0000
     0.0000   0.0000   0.0000   0.0000   0.0000   0.0000   0.0000   0.0000
     0.0000   0.0000   0.0000   0.0000   0.0000

          k = 0.0000-0.5774-0.2526 ( 11344 PWs)   bands (ev):

   -91.6366 -91.6287 -91.6266 -54.8942 -54.8715 -54.8673 -54.8651 -54.8539
   -54.8525 -54.8500 -54.8486 -54.8432 -48.4777 -20.4357 -20.3956 -20.3336
   -17.7963 -17.7257 -16.4893 -16.3451 -14.3500 -14.3437 -13.6014 -13.5071
   -13.2833 -13.2781  -6.0178  -5.2340  -4.3985  -3.9441  -2.2422  -2.0365
    -1.7338  -1.3581  -1.2893  -0.9858  -0.8354  -0.8028  -0.6768  -0.6063
    -0.4296  -0.4021  -0.2991  -0.1850   0.2685   0.2763   0.4541   0.8100
     0.8210   0.8608   1.2714   1.3973   1.8525   1.9534   2.6291   2.6473
     2.7255   2.9961   3.0714   3.0746   3.4305   3.5723   3.5857   3.7456
     3.7617   5.5363   5.5536   5.7588   5.8978   5.9345   6.3483   8.1567
     9.4124  10.3705  10.9419  11.2265  11.5286  12.3478  12.5137  13.1931
    13.3309  14.0961  14.4681  14.6022  15.1879

     occupation numbers 
     1.0000   1.0000   1.0000   1.0000   1.0000   1.0000   1.0000   1.0000
     1.0000   1.0000   1.0000   1.0000   1.0000   1.0000   1.0000   1.0000
     1.0000   1.0000   1.0000   1.0000   1.0000   1.0000   1.0000   1.0000
     1.0000   1.0000   1.0000   1.0000   1.0000   1.0000   1.0000   1.0000
     1.0000   1.0000   1.0000   1.0000   1.0000   1.0000   1.0000   1.0000
     1.0000   1.0000   1.0000   1.0000   1.0000   1.0000   1.0000   1.0000
     1.0000   1.0000   1.0000   1.0000   1.0000   1.0000   1.0000   1.0000
     1.0000   1.0000   1.0000   1.0000   1.0015   1.0110   1.0129   1.0554
     1.0609   0.0000   0.0000   0.0000   0.0000   0.0000   0.0000   0.0000
     0.0000   0.0000   0.0000   0.0000   0.0000   0.0000   0.0000   0.0000
     0.0000   0.0000   0.0000   0.0000   0.0000

          k = 0.1667 0.2887 0.0000 ( 11373 PWs)   bands (ev):

   -91.6369 -91.6289 -91.6262 -54.8885 -54.8844 -54.8665 -54.8588 -54.8567
   -54.8532 -54.8514 -54.8479 -54.8391 -48.4778 -20.4316 -20.3963 -20.3340
   -17.9368 -17.5843 -16.5760 -16.2545 -14.8419 -13.7338 -13.7268 -13.3838
   -13.3766 -13.2505  -5.9755  -5.3004  -4.3250  -4.0153  -1.9746  -1.8894
    -1.7034  -1.6782  -1.2534  -1.1123  -1.0645  -0.9981  -0.7970  -0.7460
    -0.6717  -0.1678  -0.0910   0.0267   0.4230   0.4639   0.6071   0.6247
     0.6522   1.0673   1.6052   1.7147   1.7515   1.8274   1.8864   2.6021
     2.8531   2.8561   3.0846   3.1958   3.2000   3.4080   3.7339   3.7373
     3.8669   5.6922   5.7086   5.7412   5.9360   5.9531   6.3216   7.3246
     9.5259  10.3837  10.8017  11.4995  12.0154  12.2723  12.7770  13.2396
    13.7627  14.1172  14.3731  14.9667  15.2238

     occupation numbers 
     1.0000   1.0000   1.0000   1.0000   1.0000   1.0000   1.0000   1.0000
     1.0000   1.0000   1.0000   1.0000   1.0000   1.0000   1.0000   1.0000
     1.0000   1.0000   1.0000   1.0000   1.0000   1.0000   1.0000   1.0000
     1.0000   1.0000   1.0000   1.0000   1.0000   1.0000   1.0000   1.0000
     1.0000   1.0000   1.0000   1.0000   1.0000   1.0000   1.0000   1.0000
     1.0000   1.0000   1.0000   1.0000   1.0000   1.0000   1.0000   1.0000
     1.0000   1.0000   1.0000   1.0000   1.0000   1.0000   1.0000   1.0000
     1.0000   1.0000   1.0000   1.0000   1.0000   1.0010   1.0513   1.0525
     1.0833   0.0000   0.0000   0.0000   0.0000   0.0000   0.0000   0.0000
     0.0000   0.0000   0.0000   0.0000   0.0000   0.0000   0.0000   0.0000
     0.0000   0.0000   0.0000   0.0000   0.0000

          k = 0.1667 0.2887-0.2526 ( 11348 PWs)   bands (ev):

   -91.6369 -91.6288 -91.6262 -54.8885 -54.8843 -54.8665 -54.8587 -54.8567
   -54.8532 -54.8514 -54.8479 -54.8390 -48.4777 -20.4315 -20.3962 -20.3340
   -17.9367 -17.5843 -16.5762 -16.2545 -14.8412 -13.7338 -13.7268 -13.3838
   -13.3766 -13.2511  -5.9746  -5.2974  -4.3287  -4.0157  -1.9891  -1.8889
    -1.7070  -1.6678  -1.2598  -1.1166  -1.0726  -1.0052  -0.7626  -0.7456
    -0.6678  -0.1652  -0.0908   0.0338   0.4223   0.4667   0.6026   0.6224
     0.6590   1.0744   1.5986   1.7135   1.7421   1.8220   1.8818   2.5952
     2.8530   2.8561   3.0802   3.1957   3.2000   3.4081   3.7352   3.7386
     3.8751   5.6917   5.7039   5.7301   5.9363   5.9534   6.3215   7.4092
     9.3457  10.3498  10.8648  11.7024  11.9496  12.2934  12.9932  13.1739
    13.6788  13.8351  14.3892  15.0061  15.1419

     occupation numbers 
     1.0000   1.0000   1.0000   1.0000   1.0000   1.0000   1.0000   1.0000
     1.0000   1.0000   1.0000   1.0000   1.0000   1.0000   1.0000   1.0000
     1.0000   1.0000   1.0000   1.0000   1.0000   1.0000   1.0000   1.0000
     1.0000   1.0000   1.0000   1.0000   1.0000   1.0000   1.0000   1.0000
     1.0000   1.0000   1.0000   1.0000   1.0000   1.0000   1.0000   1.0000
     1.0000   1.0000   1.0000   1.0000   1.0000   1.0000   1.0000   1.0000
     1.0000   1.0000   1.0000   1.0000   1.0000   1.0000   1.0000   1.0000
     1.0000   1.0000   1.0000   1.0000   1.0000   1.0010   1.0518   1.0530
     1.0828   0.0000   0.0000   0.0000   0.0000   0.0000   0.0000   0.0000
     0.0000   0.0000   0.0000   0.0000   0.0000   0.0000   0.0000   0.0000
     0.0000   0.0000   0.0000   0.0000   0.0000

          k = 0.1667 0.4811 0.0000 ( 11356 PWs)   bands (ev):

   -91.6366 -91.6287 -91.6266 -54.8904 -54.8783 -54.8677 -54.8628 -54.8540
   -54.8527 -54.8496 -54.8488 -54.8419 -48.4777 -20.4347 -20.3965 -20.3338
   -17.8064 -17.7156 -16.4852 -16.3493 -14.4975 -14.0902 -13.8024 -13.3912
   -13.3133 -13.2703  -6.0195  -5.2336  -4.3723  -3.9731  -2.0802  -2.0041
    -1.7351  -1.4722  -1.3778  -1.0521  -0.9149  -0.8075  -0.6984  -0.5584
    -0.5368  -0.2975  -0.2708  -0.1443   0.2244   0.2469   0.4321   0.7806
     0.8527   1.1079   1.2645   1.4384   1.9065   1.9736   2.3164   2.6537
     2.8921   3.0893   3.1032   3.1319   3.3021   3.5164   3.5432   3.7155
     3.7414   5.4163   5.5281   5.6677   6.0515   6.1935   6.2672   8.0746
     9.4560  10.3903  10.5601  11.4824  11.8198  12.0589  12.5913  13.1056
    13.4809  14.0685  14.3612  14.8046  15.3200

     occupation numbers 
     1.0000   1.0000   1.0000   1.0000   1.0000   1.0000   1.0000   1.0000
     1.0000   1.0000   1.0000   1.0000   1.0000   1.0000   1.0000   1.0000
     1.0000   1.0000   1.0000   1.0000   1.0000   1.0000   1.0000   1.0000
     1.0000   1.0000   1.0000   1.0000   1.0000   1.0000   1.0000   1.0000
     1.0000   1.0000   1.0000   1.0000   1.0000   1.0000   1.0000   1.0000
     1.0000   1.0000   1.0000   1.0000   1.0000   1.0000   1.0000   1.0000
     1.0000   1.0000   1.0000   1.0000   1.0000   1.0000   1.0000   1.0000
     1.0000   1.0000   1.0000   1.0000   1.0001   1.0053   1.0076   1.0451
     1.0539   0.0000   0.0000   0.0000   0.0000   0.0000   0.0000   0.0000
     0.0000   0.0000   0.0000   0.0000   0.0000   0.0000   0.0000   0.0000
     0.0000   0.0000   0.0000   0.0000   0.0000

          k = 0.1667 0.4811-0.2526 ( 11352 PWs)   bands (ev):

   -91.6366 -91.6287 -91.6266 -54.8904 -54.8784 -54.8677 -54.8628 -54.8540
   -54.8528 -54.8496 -54.8488 -54.8419 -48.4777 -20.4346 -20.3965 -20.3338
   -17.8064 -17.7155 -16.4853 -16.3494 -14.4971 -14.0901 -13.8024 -13.3912
   -13.3134 -13.2707  -6.0192  -5.2331  -4.3722  -3.9738  -2.0816  -2.0136
    -1.7206  -1.4833  -1.3769  -1.0367  -0.9178  -0.7923  -0.6971  -0.5982
    -0.5382  -0.2899  -0.2778  -0.1385   0.2357   0.2533   0.4372   0.7906
     0.8529   1.1081   1.2648   1.4211   1.9075   1.9627   2.3183   2.6561
     2.8921   3.0892   3.1031   3.1314   3.3016   3.5180   3.5426   3.7163
     3.7433   5.4091   5.5266   5.6658   6.0522   6.1945   6.2672   8.0980
     9.4725  10.3098  10.5396  11.4688  11.9338  12.0533  12.6637  13.1636
    13.4663  13.8915  14.2510  15.0901  15.3193

     occupation numbers 
     1.0000   1.0000   1.0000   1.0000   1.0000   1.0000   1.0000   1.0000
     1.0000   1.0000   1.0000   1.0000   1.0000   1.0000   1.0000   1.0000
     1.0000   1.0000   1.0000   1.0000   1.0000   1.0000   1.0000   1.0000
     1.0000   1.0000   1.0000   1.0000   1.0000   1.0000   1.0000   1.0000
     1.0000   1.0000   1.0000   1.0000   1.0000   1.0000   1.0000   1.0000
     1.0000   1.0000   1.0000   1.0000   1.0000   1.0000   1.0000   1.0000
     1.0000   1.0000   1.0000   1.0000   1.0000   1.0000   1.0000   1.0000
     1.0000   1.0000   1.0000   1.0000   1.0001   1.0054   1.0076   1.0453
     1.0546   0.0000   0.0000   0.0000   0.0000   0.0000   0.0000   0.0000
     0.0000   0.0000   0.0000   0.0000   0.0000   0.0000   0.0000   0.0000
     0.0000   0.0000   0.0000   0.0000   0.0000

          k = 0.3333 0.5774 0.0000 ( 11370 PWs)   bands (ev):

   -91.6365 -91.6286 -91.6268 -54.8830 -54.8805 -54.8757 -54.8633 -54.8534
   -54.8530 -54.8485 -54.8465 -54.8427 -48.4777 -20.4368 -20.3967 -20.3336
   -17.8341 -17.6830 -16.5029 -16.3302 -14.1556 -14.1489 -14.1440 -13.3171
   -13.3104 -13.3075  -5.9880  -5.2884  -4.3319  -4.0376  -2.2088  -1.7382
    -1.6573  -1.5862  -1.3981  -1.1413  -0.7934  -0.7606  -0.7413  -0.4523
    -0.3974  -0.3908  -0.3895  -0.1610   0.1192   0.1537   0.2292   0.6999
     1.2031   1.2076   1.2142   1.2684   2.0912   2.3066   2.3271   2.3421
     3.0822   3.0893   3.0912   3.3404   3.3423   3.3428   3.5721   3.5779
     3.5838   5.4291   5.4436   5.4672   6.2656   6.2741   6.2766   8.2780
     9.4167   9.9347  10.7828  11.3755  11.9070  12.3450  12.5722  12.8408
    13.5785  14.0358  14.5984  14.9881  15.2092

     occupation numbers 
     1.0000   1.0000   1.0000   1.0000   1.0000   1.0000   1.0000   1.0000
     1.0000   1.0000   1.0000   1.0000   1.0000   1.0000   1.0000   1.0000
     1.0000   1.0000   1.0000   1.0000   1.0000   1.0000   1.0000   1.0000
     1.0000   1.0000   1.0000   1.0000   1.0000   1.0000   1.0000   1.0000
     1.0000   1.0000   1.0000   1.0000   1.0000   1.0000   1.0000   1.0000
     1.0000   1.0000   1.0000   1.0000   1.0000   1.0000   1.0000   1.0000
     1.0000   1.0000   1.0000   1.0000   1.0000   1.0000   1.0000   1.0000
     1.0000   1.0000   1.0000   1.0003   1.0003   1.0003   1.0110   1.0118
     1.0126   0.0000   0.0000   0.0000   0.0000   0.0000   0.0000   0.0000
     0.0000   0.0000   0.0000   0.0000   0.0000   0.0000   0.0000   0.0000
     0.0000   0.0000   0.0000   0.0000   0.0000

          k = 0.3333 0.5774-0.2526 ( 11340 PWs)   bands (ev):

   -91.6365 -91.6286 -91.6268 -54.8830 -54.8805 -54.8757 -54.8633 -54.8534
   -54.8529 -54.8485 -54.8465 -54.8426 -48.4777 -20.4367 -20.3966 -20.3335
   -17.8341 -17.6830 -16.5030 -16.3303 -14.1553 -14.1488 -14.1440 -13.3173
   -13.3106 -13.3075  -5.9881  -5.2894  -4.3309  -4.0364  -2.2073  -1.7339
    -1.6601  -1.5874  -1.4008  -1.1331  -0.7932  -0.7606  -0.7512  -0.4784
    -0.3975  -0.3931  -0.3892  -0.1696   0.1354   0.1525   0.2662   0.7101
     1.2004   1.2060   1.2142   1.2504   2.0849   2.3051   2.3297   2.3454
     3.0822   3.0885   3.0909   3.3405   3.3423   3.3428   3.5728   3.5803
     3.5867   5.4245   5.4386   5.4642   6.2657   6.2741   6.2766   8.2774
     9.4331   9.9457  10.7897  11.3695  11.8388  12.3430  12.6002  12.9309
    13.4989  14.0718  14.5686  14.9805  15.4056

     occupation numbers 
     1.0000   1.0000   1.0000   1.0000   1.0000   1.0000   1.0000   1.0000
     1.0000   1.0000   1.0000   1.0000   1.0000   1.0000   1.0000   1.0000
     1.0000   1.0000   1.0000   1.0000   1.0000   1.0000   1.0000   1.0000
     1.0000   1.0000   1.0000   1.0000   1.0000   1.0000   1.0000   1.0000
     1.0000   1.0000   1.0000   1.0000   1.0000   1.0000   1.0000   1.0000
     1.0000   1.0000   1.0000   1.0000   1.0000   1.0000   1.0000   1.0000
     1.0000   1.0000   1.0000   1.0000   1.0000   1.0000   1.0000   1.0000
     1.0000   1.0000   1.0000   1.0003   1.0003   1.0003   1.0111   1.0121
     1.0131   0.0000   0.0000   0.0000   0.0000   0.0000   0.0000   0.0000
     0.0000   0.0000   0.0000   0.0000   0.0000   0.0000   0.0000   0.0000
     0.0000   0.0000   0.0000   0.0000   0.0000

          k =-0.1667 0.0962 0.0000 ( 11360 PWs)   bands (ev):

   -91.6372 -91.6289 -91.6258 -54.8864 -54.8829 -54.8684 -54.8655 -54.8613
   -54.8539 -54.8499 -54.8407 -54.8373 -48.4778 -20.4328 -20.3941 -20.3333
   -18.0373 -17.4754 -16.6636 -16.1583 -15.0366 -13.6186 -13.5399 -13.4375
   -13.3861 -13.2443  -5.7682  -5.5755  -4.2855  -4.0697  -2.1466  -1.6686
    -1.6095  -1.3745  -1.2693  -1.1782  -1.1227  -1.0671  -0.9537  -0.8720
    -0.5726  -0.4361  -0.2487   0.0796   0.4217   0.5189   0.5502   0.6812
     0.7572   1.3367   1.4785   1.5394   1.9000   2.0060   2.1382   2.4332
     2.6273   2.6946   2.9721   3.1745   3.3770   3.3910   3.7208   3.7893
     3.8522   5.7087   5.7492   5.7709   5.8211   6.1817   6.3914   6.7072
     9.2267  10.3399  11.1817  11.5550  12.4569  12.7100  12.9333  13.4122
    13.7342  14.2302  14.5598  14.8710  15.2375

     occupation numbers 
     1.0000   1.0000   1.0000   1.0000   1.0000   1.0000   1.0000   1.0000
     1.0000   1.0000   1.0000   1.0000   1.0000   1.0000   1.0000   1.0000
     1.0000   1.0000   1.0000   1.0000   1.0000   1.0000   1.0000   1.0000
     1.0000   1.0000   1.0000   1.0000   1.0000   1.0000   1.0000   1.0000
     1.0000   1.0000   1.0000   1.0000   1.0000   1.0000   1.0000   1.0000
     1.0000   1.0000   1.0000   1.0000   1.0000   1.0000   1.0000   1.0000
     1.0000   1.0000   1.0000   1.0000   1.0000   1.0000   1.0000   1.0000
     1.0000   1.0000   1.0000   1.0000   1.0006   1.0007   1.0469   1.0699
     1.0829   0.0000   0.0000   0.0000   0.0000   0.0000   0.0000   0.0000
     0.0000   0.0000   0.0000   0.0000   0.0000   0.0000   0.0000   0.0000
     0.0000   0.0000   0.0000   0.0000   0.0000

          k = 0.1667 0.0962 0.0000 ( 11360 PWs)   bands (ev):

   -91.6372 -91.6289 -91.6258 -54.8864 -54.8826 -54.8687 -54.8656 -54.8611
   -54.8539 -54.8500 -54.8404 -54.8375 -48.4778 -20.4306 -20.3950 -20.3337
   -18.0229 -17.4936 -16.6475 -16.1766 -15.0365 -13.6181 -13.5405 -13.4380
   -13.3857 -13.2442  -5.8693  -5.4521  -4.2736  -4.0721  -2.0669  -1.7472
    -1.6017  -1.3961  -1.2744  -1.2094  -1.1050  -1.0767  -0.8917  -0.8697
    -0.6712  -0.4301  -0.2512   0.1240   0.4375   0.4660   0.5643   0.6872
     0.7593   1.4479   1.4947   1.5554   1.8960   1.9978   2.0139   2.4332
     2.6278   2.6937   2.9716   3.1758   3.3761   3.3917   3.7207   3.7884
     3.8537   5.7118   5.7486   5.7754   5.8149   6.1781   6.3926   6.7372
     9.2058  10.5295  10.9570  11.5797  12.3069  12.6472  13.0410  13.4152
    13.7344  14.2489  14.6017  14.8723  15.0735

     occupation numbers 
     1.0000   1.0000   1.0000   1.0000   1.0000   1.0000   1.0000   1.0000
     1.0000   1.0000   1.0000   1.0000   1.0000   1.0000   1.0000   1.0000
     1.0000   1.0000   1.0000   1.0000   1.0000   1.0000   1.0000   1.0000
     1.0000   1.0000   1.0000   1.0000   1.0000   1.0000   1.0000   1.0000
     1.0000   1.0000   1.0000   1.0000   1.0000   1.0000   1.0000   1.0000
     1.0000   1.0000   1.0000   1.0000   1.0000   1.0000   1.0000   1.0000
     1.0000   1.0000   1.0000   1.0000   1.0000   1.0000   1.0000   1.0000
     1.0000   1.0000   1.0000   1.0000   1.0006   1.0008   1.0468   1.0696
     1.0830   0.0000   0.0000   0.0000   0.0000   0.0000   0.0000   0.0000
     0.0000   0.0000   0.0000   0.0000   0.0000   0.0000   0.0000   0.0000
     0.0000   0.0000   0.0000   0.0000   0.0000

          k =-0.1667 0.0962-0.2526 ( 11384 PWs)   bands (ev):

   -91.6372 -91.6289 -91.6258 -54.8864 -54.8829 -54.8684 -54.8655 -54.8614
   -54.8539 -54.8499 -54.8407 -54.8374 -48.4778 -20.4328 -20.3941 -20.3334
   -18.0372 -17.4754 -16.6640 -16.1583 -15.0357 -13.6185 -13.5399 -13.4375
   -13.3861 -13.2452  -5.7672  -5.5704  -4.2921  -4.0710  -2.1509  -1.6646
    -1.6117  -1.3740  -1.3105  -1.2227  -1.0945  -1.0395  -0.9347  -0.8720
    -0.5537  -0.4332  -0.2388   0.0962   0.4348   0.5038   0.5437   0.6804
     0.7619   1.3225   1.4815   1.5458   1.9014   1.9977   2.1372   2.3865
     2.6272   2.6945   2.9723   3.1730   3.3772   3.3912   3.7212   3.7894
     3.8699   5.7100   5.7485   5.7707   5.8211   6.1570   6.3978   6.8258
     8.9564  10.5010  11.0733  12.0603  12.2921  12.5588  12.8881  13.3862
    13.7104  14.1919  14.5502  14.9690  15.2313

     occupation numbers 
[...]
     1.0000   1.0000   1.0000   1.0000   1.0000   1.0000   1.0000   1.0000
     1.0000   1.0000   1.0000   1.0000   1.0000   1.0000   1.0000   1.0000
     1.0000   1.0000   1.0000   1.0000   1.0000   1.0000   1.0000   1.0000
     1.0000   1.0000   1.0000   1.0000   1.0000   1.0000   1.0000   1.0000
     1.0264   1.0360   1.0474   1.0649   0.9342   0.9023   0.6743   0.2752
     0.0252   0.0000   0.0000   0.0000   0.0000   0.0000   0.0000   0.0000
     0.0000   0.0000   0.0000   0.0000   0.0000   0.0000   0.0000   0.0000
     0.0000   0.0000   0.0000   0.0000   0.0000

          k = 0.5000-0.0962 0.2526 ( 11352 PWs)   bands (ev):

   -91.1449 -91.1430 -91.1420 -54.4791 -54.4680 -54.4544 -54.4400 -54.4384
   -54.4331 -54.2759 -54.2730 -54.2711 -47.7914 -19.7259 -19.7158 -19.6674
   -17.2003 -16.5252 -16.4798 -16.0542 -14.6385 -14.2304 -13.9421 -13.5217
   -13.4455 -13.4042  -5.2149  -4.4661  -4.4157  -3.5799  -2.2385  -2.0525
    -1.6289  -1.4813  -1.2475  -1.0014  -0.8439  -0.7894  -0.6387  -0.5473
    -0.3842  -0.3186  -0.2941   0.1751   0.3288   0.4087   0.5206   0.7735
     0.9597   1.0333   1.1248   1.2474   1.7230   1.8846   2.2801   2.6354
     3.4176   3.4532   3.4877   3.5386   3.8029   3.8201   3.9109   4.0692
     4.3012   5.5368   5.6550   5.8100   6.1011   6.2387   6.3073   9.1778
    10.1960  10.5087  11.1334  11.6452  11.9189  12.8347  12.9624  13.3597
    13.7218  14.2233  14.7786  15.0639  15.2026

     occupation numbers 
     1.0000   1.0000   1.0000   1.0000   1.0000   1.0000   1.0000   1.0000
     1.0000   1.0000   1.0000   1.0000   1.0000   1.0000   1.0000   1.0000
     1.0000   1.0000   1.0000   1.0000   1.0000   1.0000   1.0000   1.0000
     1.0000   1.0000   1.0000   1.0000   1.0000   1.0000   1.0000   1.0000
     1.0000   1.0000   1.0000   1.0000   1.0000   1.0000   1.0000   1.0000
     1.0000   1.0000   1.0000   1.0000   1.0000   1.0000   1.0000   1.0000
     1.0000   1.0000   1.0000   1.0000   1.0000   1.0000   1.0000   1.0000
     1.0262   1.0361   1.0473   1.0647   0.9351   0.9014   0.6785   0.2728
     0.0241   0.0000   0.0000   0.0000   0.0000   0.0000   0.0000   0.0000
     0.0000   0.0000   0.0000   0.0000   0.0000   0.0000   0.0000   0.0000
     0.0000   0.0000   0.0000   0.0000   0.0000

     the Fermi energy is     4.0137 ev

!    total energy              =   -1665.73211448 Ry
     total all-electron energy =    -10200.354448 Ry
     estimated scf accuracy    <          1.9E-09 Ry
     smearing contrib. (-TS)   =       0.00983787 Ry
     internal energy E=F+TS    =   -1665.74195235 Ry

     The total energy is F=E-TS. E is the sum of the following terms:
     one-electron contribution =   -1771.02842830 Ry
     hartree contribution      =     935.26283419 Ry
     xc contribution           =    -186.24098562 Ry
     ewald contribution        =    -269.76002111 Ry
     DFT-D3 Dispersion         =      -0.12370825 Ry
     one-center paw contrib.   =    -373.85164325 Ry
      -> PAW hartree energy AE =    1004.31359827 Ry
      -> PAW hartree energy PS =   -1001.89383902 Ry
      -> PAW xc energy AE      =    -553.41670018 Ry
      -> PAW xc energy PS      =     177.14529767 Ry
      -> total E_H with PAW    =     937.68259344 Ry
      -> total E_XC with PAW   =    -562.51238813 Ry

     total magnetization       =     2.31 Bohr mag/cell
     absolute magnetization    =     2.35 Bohr mag/cell

     convergence has been achieved in  17 iterations

     Forces acting on atoms (cartesian axes, Ry/au):

     atom    1 type  1   force =    -0.00152987   -0.00021412    0.00162399
     atom    2 type  1   force =     0.00027081    0.00001775    0.01560433
     atom    3 type  1   force =    -0.00067420    0.00000384    0.01697322
     atom    4 type  2   force =    -0.00285505   -0.00448898   -0.02371305
     atom    5 type  2   force =     0.00233305    0.00274962   -0.02582752
     atom    6 type  2   force =     0.00181224    0.00485872   -0.02437352
     atom    7 type  2   force =     0.00053706    0.00318051    0.01425107
     atom    8 type  2   force =    -0.00191263   -0.00116273    0.01195717
     atom    9 type  2   force =     0.00352663    0.00078310    0.01806355
     atom   10 type  3   force =     0.00411087    0.00595797   -0.00951849
     atom   11 type  2   force =     0.00095666   -0.00109697    0.00198188
     atom   12 type  4   force =    -0.00065110   -0.00016107    0.00121944
     atom   13 type  4   force =     0.00035972   -0.00233609   -0.00138319
     atom   14 type  2   force =    -0.00279068   -0.00675223    0.00235351
     atom   15 type  4   force =     0.00024741    0.00154062   -0.00006984
     atom   16 type  4   force =    -0.00109806   -0.00015138   -0.00448512
     atom   17 type  2   force =    -0.00015665    0.00111205    0.00173612
     atom   18 type  4   force =     0.00126508    0.00140660   -0.00012201
     atom   19 type  4   force =     0.00096729   -0.00110148    0.00233508
     atom   20 type  2   force =    -0.00429891   -0.00449129   -0.00529381
     atom   21 type  4   force =    -0.00444341   -0.00202630    0.00550134
     atom   22 type  4   force =     0.00402375    0.00237184    0.00118584
     The non-local contrib.  to forces
     atom    1 type  1   force =     0.00339099    0.00792050    0.02368896
     atom    2 type  1   force =    -0.00469662   -0.00439994   -0.02982436
     atom    3 type  1   force =     0.00045609   -0.01330461   -0.03559054
     atom    4 type  2   force =    -0.02799545   -0.04774780   -1.15992923
     atom    5 type  2   force =     0.01930852    0.02600132   -1.16301155
     atom    6 type  2   force =     0.01825990    0.04453359   -1.14549679
     atom    7 type  2   force =     0.03541848    0.02933674    1.06559260
     atom    8 type  2   force =    -0.03245463   -0.02828804    1.05818170
     atom    9 type  2   force =    -0.00221892    0.02893202    1.07690209
     atom   10 type  3   force =     0.00398280   -0.11803782    0.22159231
     atom   11 type  2   force =     0.74033986    0.91720163   -1.53458022
     atom   12 type  4   force =    -0.08025536   -0.05984742   -0.00204166
     atom   13 type  4   force =     0.03403028   -0.00254876    0.10071472
     atom   14 type  2   force =     0.61035122    1.08587663   -1.51308497
     atom   15 type  4   force =    -0.01059994   -0.09951666   -0.00239084
     atom   16 type  4   force =    -0.03066731    0.02905100    0.09896832
     atom   17 type  2   force =     0.25219874    1.39621889    1.42652630
     atom   18 type  4   force =    -0.00912021   -0.09794886    0.01429448
     atom   19 type  4   force =    -0.01979332    0.01377259   -0.10220858
     atom   20 type  2   force =     0.94816246    0.88381122    1.43978200
     atom   21 type  4   force =    -0.07314919   -0.06125022    0.01303315
     atom   22 type  4   force =     0.02389118   -0.00195689   -0.10259828
     The ionic contribution  to forces
     atom    1 type  1   force =    -0.11558816   -0.31072609    4.72519782
     atom    2 type  1   force =     0.49592622   -0.10987578    6.00414335
     atom    3 type  1   force =    -0.41363287    0.44279975    6.09881193
     atom    4 type  2   force =     0.28340711    0.51130095   34.58955530
     atom    5 type  2   force =     0.16996389   -0.44331922   34.33015622
     atom    6 type  2   force =    -0.49987129   -0.16030459   34.23543681
     atom    7 type  2   force =    -0.56426156    0.01723042  -30.59412514
     atom    8 type  2   force =     0.24480373    0.25112682  -30.79017606
     atom    9 type  2   force =     0.36206147   -0.31887330  -30.34192589
     atom   10 type  3   force =     0.20230425   -1.57400689  -13.01890591
     atom   11 type  2   force =    -0.73250061   -1.24588750   12.73046671
     atom   12 type  4   force =     2.09052413    1.68407815    1.81998657
     atom   13 type  4   force =    -1.03874202    0.14151248    0.84236045
     atom   14 type  2   force =    -1.22955822   -1.34141886   11.76960237
     atom   15 type  4   force =     0.35468667    2.60741133    1.71985682
     atom   16 type  4   force =     0.94999800   -0.85847856    0.67714115
     atom   17 type  2   force =     0.92114425   -2.59993608  -18.06193487
     atom   18 type  4   force =     0.27074964    2.36972184   -2.86599936
     atom   19 type  4   force =     0.72756617   -0.46154437   -1.27293284
     atom   20 type  2   force =    -3.20755892   -0.48394510  -18.37967883
     atom   21 type  4   force =     1.58666027    1.71053645   -2.84291671
     atom   22 type  4   force =    -0.85808214    0.17259814   -1.37411990
     The local contribution  to forces
     atom    1 type  1   force =     0.11066285    0.30256010   -4.74601584
     atom    2 type  1   force =    -0.49082252    0.11415957   -5.95893999
     atom    3 type  1   force =     0.41241132   -0.42952330   -6.04665649
     atom    4 type  2   force =    -0.25855912   -0.46854010  -33.46434900
     atom    5 type  2   force =    -0.18661913    0.42037638  -33.20388835
     atom    6 type  2   force =     0.48360731    0.12124366  -33.12499910
     atom    7 type  2   force =     0.52997905   -0.04293072   29.55310928
     atom    8 type  2   force =    -0.21477138   -0.22455843   29.75424346
     atom    9 type  2   force =    -0.35648458    0.29125307   29.29337387
     atom   10 type  3   force =    -0.20239384    1.69943411   12.78369414
     atom   11 type  2   force =    -0.00190091    0.33459126  -11.20505303
     atom   12 type  4   force =    -2.01060822   -1.62429990   -1.81607335
     atom   13 type  4   force =     1.00477435   -0.14152492   -0.94329613
     atom   14 type  2   force =     0.62137705    0.25649174  -10.26522130
     atom   15 type  4   force =    -0.34393504   -2.50601834   -1.71691384
     atom   16 type  4   force =    -0.92045498    0.82895074   -0.77942791
     atom   17 type  2   force =    -1.17231399    1.21545637   16.64744128
     atom   18 type  4   force =    -0.26037962   -2.26997687    2.85105204
     atom   19 type  4   force =    -0.70688687    0.44652731    1.37740154
     atom   20 type  2   force =     2.26347715   -0.39847049   16.94510395
     atom   21 type  4   force =    -1.51759908   -1.65108364    2.83476362
     atom   22 type  4   force =     0.83830254   -0.16851725    1.47796290
     The core correction contribution to forces
     atom    1 type  1   force =    -0.00001538   -0.00004911   -0.00014955
     atom    2 type  1   force =     0.00002721    0.00002576    0.00006766
     atom    3 type  1   force =     0.00000458    0.00007902    0.00008841
     atom    4 type  2   force =     0.00024955    0.00042282    0.01027180
     atom    5 type  2   force =    -0.00018504   -0.00021743    0.01031767
     atom    6 type  2   force =    -0.00014169   -0.00039433    0.01015426
     atom    7 type  2   force =    -0.00030899   -0.00027736   -0.00941011
     atom    8 type  2   force =     0.00029071    0.00025166   -0.00931035
     atom    9 type  2   force =    -0.00000205   -0.00026067   -0.00955041
     atom   10 type  3   force =    -0.00000538    0.00005423   -0.00010295
     atom   11 type  2   force =    -0.00570566   -0.00710391    0.01188147
     atom   12 type  4   force =     0.00000000    0.00000000    0.00000000
     atom   13 type  4   force =     0.00000000    0.00000000    0.00000000
     atom   14 type  2   force =    -0.00470655   -0.00831966    0.01173697
     atom   15 type  4   force =     0.00000000    0.00000000    0.00000000
     atom   16 type  4   force =     0.00000000    0.00000000    0.00000000
     atom   17 type  2   force =    -0.00187214   -0.01081674   -0.01094627
     atom   18 type  4   force =     0.00000000    0.00000000    0.00000000
     atom   19 type  4   force =     0.00000000    0.00000000    0.00000000
     atom   20 type  2   force =    -0.00734902   -0.00679187   -0.01103700
     atom   21 type  4   force =     0.00000000    0.00000000    0.00000000
     atom   22 type  4   force =     0.00000000    0.00000000    0.00000000
     The Hubbard contrib.    to forces
     atom    1 type  1   force =     0.00000000    0.00000000    0.00000000
     atom    2 type  1   force =     0.00000000    0.00000000    0.00000000
     atom    3 type  1   force =     0.00000000    0.00000000    0.00000000
     atom    4 type  2   force =     0.00000000    0.00000000    0.00000000
     atom    5 type  2   force =     0.00000000    0.00000000    0.00000000
     atom    6 type  2   force =     0.00000000    0.00000000    0.00000000
     atom    7 type  2   force =     0.00000000    0.00000000    0.00000000
     atom    8 type  2   force =     0.00000000    0.00000000    0.00000000
     atom    9 type  2   force =     0.00000000    0.00000000    0.00000000
     atom   10 type  3   force =     0.00000000    0.00000000    0.00000000
     atom   11 type  2   force =     0.00000000    0.00000000    0.00000000
     atom   12 type  4   force =     0.00000000    0.00000000    0.00000000
     atom   13 type  4   force =     0.00000000    0.00000000    0.00000000
     atom   14 type  2   force =     0.00000000    0.00000000    0.00000000
     atom   15 type  4   force =     0.00000000    0.00000000    0.00000000
     atom   16 type  4   force =     0.00000000    0.00000000    0.00000000
     atom   17 type  2   force =     0.00000000    0.00000000    0.00000000
     atom   18 type  4   force =     0.00000000    0.00000000    0.00000000
     atom   19 type  4   force =     0.00000000    0.00000000    0.00000000
     atom   20 type  2   force =     0.00000000    0.00000000    0.00000000
     atom   21 type  4   force =     0.00000000    0.00000000    0.00000000
     atom   22 type  4   force =     0.00000000    0.00000000    0.00000000
     The SCF correction term to forces
     atom    1 type  1   force =    -0.00000000    0.00000000    0.00000000
     atom    2 type  1   force =     0.00000000    0.00000000    0.00000000
     atom    3 type  1   force =     0.00000000   -0.00000000    0.00000000
     atom    4 type  2   force =     0.00000000    0.00000000   -0.00000000
     atom    5 type  2   force =    -0.00000000    0.00000000    0.00000000
     atom    6 type  2   force =     0.00000000   -0.00000000    0.00000000
     atom    7 type  2   force =     0.00000000   -0.00000000    0.00000000
     atom    8 type  2   force =    -0.00000000    0.00000000    0.00000000
     atom    9 type  2   force =     0.00000000   -0.00000000    0.00000000
     atom   10 type  3   force =     0.00000000    0.00000000   -0.00000000
     atom   11 type  2   force =     0.00000854   -0.00000947   -0.00005088
     atom   12 type  4   force =    -0.00000008   -0.00000168   -0.00000746
     atom   13 type  4   force =     0.00000167   -0.00000066   -0.00000342
     atom   14 type  2   force =     0.00000071   -0.00000309   -0.00004291
     atom   15 type  4   force =     0.00000060    0.00000036   -0.00000660
     atom   16 type  4   force =    -0.00000114    0.00000065   -0.00000210
     atom   17 type  2   force =     0.00000084    0.00001123    0.00002464
     atom   18 type  4   force =    -0.00000098   -0.00000604    0.00000136
     atom   19 type  4   force =    -0.00000073    0.00000179    0.00000198
     atom   20 type  2   force =    -0.00000324   -0.00001442    0.00000577
     atom   21 type  4   force =     0.00000594    0.00000413    0.00000019
     atom   22 type  4   force =    -0.00000114   -0.00000160    0.00001006

     DFT-D3 dispersion contribution to forces:
     atom    1 type  1   force =     0.00003041    0.00007167   -0.00112749
     atom    2 type  1   force =    -0.00016892    0.00008903    0.00012292
     atom    3 type  1   force =     0.00008455   -0.00001635    0.00024474
     atom    4 type  2   force =     0.00003478    0.00007386    0.00074118
     atom    5 type  2   force =    -0.00012322   -0.00009525    0.00059823
     atom    6 type  2   force =    -0.00004753   -0.00021531    0.00051985
     atom    7 type  2   force =    -0.00030267   -0.00017298   -0.00094963
     atom    8 type  2   force =     0.00023693    0.00029394   -0.00101690
     atom    9 type  2   force =     0.00016448   -0.00026210   -0.00077051
     atom   10 type  3   force =     0.00021945   -0.00150015    0.00420899
     atom   11 type  2   force =     0.00071513    0.00011146   -0.00068043
     atom   12 type  4   force =    -0.00031189   -0.00008976   -0.00064291
     atom   13 type  4   force =     0.00029513    0.00022622   -0.00115705
     atom   14 type  2   force =    -0.00025519    0.00062146   -0.00063491
     atom   15 type  4   force =     0.00009481   -0.00033563   -0.00061365
     atom   16 type  4   force =     0.00002706    0.00032524   -0.00116284
     atom   17 type  2   force =     0.00068533    0.00017884    0.00062678
     atom   18 type  4   force =     0.00001594   -0.00038302    0.00053122
     atom   19 type  4   force =     0.00008173    0.00014166    0.00007473
     atom   20 type  2   force =    -0.00102765    0.00091982    0.00053205
     atom   21 type  4   force =    -0.00036165   -0.00023255    0.00062283
     atom   22 type  4   force =    -0.00008700    0.00024989   -0.00006719

     Total force =     0.016052     Total SCF correction =     0.000077

     DFT-D3 dispersion Force =     0.005961
     Energy error            =      3.8E-04 Ry
     Gradient error          =      6.8E-03 Ry/Bohr

     number of scf cycles    =  23
     number of bfgs steps    =  22

     energy             old  =   -1665.7317357785 Ry
     energy             new  =   -1665.7321144832 Ry

     CASE: energy            _new < energy            _old

     new trust radius        =       0.0398795027 bohr
     new conv_thr            =       0.0000000038 Ry


ATOMIC_POSITIONS (crystal)
Co               0.0000000000        0.0000000000        0.0000000000    0   0   0
Co               0.3333333333        0.6666666667        0.0000000000    0   0   0
Co               0.6666666667        0.3333333333        0.0000000000    0   0   0
O                0.3333333333        0.3333333333        0.0969696970    0   0   0
O                0.6666666667        0.0000000000        0.0969696970    0   0   0
O                0.0000000000        0.6666666667        0.0969696970    0   0   0
O                0.3333333333        0.0000000000        0.9030303030    0   0   0
O                0.6666666667        0.6666666667        0.9030303030    0   0   0
O                0.0000000000        0.3333333333        0.9030303030    0   0   0
Na               0.0000000000        0.0000000000        0.5757575758    0   0   0
O                0.2862389636       -0.0607028127        0.3741895271
H                0.5135451702        0.0783670324        0.3750615568
H                0.2290716848        0.9465653871        0.2799339205
O               -0.0554660305        0.2928400356        0.3798198297
H                1.0804764862        0.5206314598        0.3805932657
H               -0.0313810211        0.2357945143        0.2877729327
O                0.3139364005        0.6609397973        0.6424790057
H                0.4461004135        0.8868838232        0.6297537141
H                0.3406536274        0.6346590658        0.7392082405
O                0.6934487512        0.2935248695        0.6451229732
H                0.9198841081        0.4404713246        0.6352486810
H                0.6566396994        0.2960506844        0.7424065612



     Writing config-only to output data dir ./out/pw.save/ :
     XML data file
     NEW-OLD atomic charge density approx. for the potential

     Check: negative core charge=   -0.000006
     Generating pointlists ...

     total cpu time spent up to now is     2623.4 secs

     Self-consistent Calculation
[tb_dev] Currently allocated     0.00E+00 Mbytes, locked:    0 /   0
[tb_pin] Currently allocated     0.00E+00 Mbytes, locked:    0 /   0

     iteration #  1     ecut=    60.00 Ry     beta= 0.30
