
     Program PWSCF v.7.3.1 starts on 12Jul2026 at  3:51:33 

     This program is part of the open-source Quantum ESPRESSO suite
     for quantum simulation of materials; please cite
         "P. Giannozzi et al., J. Phys.:Condens. Matter 21 395502 (2009);
         "P. Giannozzi et al., J. Phys.:Condens. Matter 29 465901 (2017);
         "P. Giannozzi et al., J. Chem. Phys. 152 154105 (2020);
          URL http://www.quantum-espresso.org", 
     in publications or presentations arising from this work. More details at
     http://www.quantum-espresso.org/quote

     Parallel version (MPI & OpenMP), running on      14 processor cores
     Number of MPI processes:                 1
     Threads/MPI process:                    14

     MPI processes distributed on     1 nodes
     841685 MiB available memory on the printing compute node when the environment starts
 
     Reading input from pw.in

     Current dimensions of program PWSCF are:
     Max number of different atomic species (ntypx) = 10
     Max number of k-points (npk) =  40000
     Max angular momentum in pseudopotentials (lmaxx) =  4
     file Co.pbe-spn-kjpaw_psl.0.3.1.UPF: wavefunction(s)  3P 3D renormalized
     file O.pbe-n-kjpaw_psl.1.0.0.UPF: wavefunction(s)  2S 2P renormalized
     file Na.pbe-spn-kjpaw_psl.1.0.0.UPF: wavefunction(s)  2P renormalized
 
     Subspace diagonalization in iterative solution of the eigenvalue problem:
     a serial algorithm will be used

 
     G-vector sticks info
     --------------------
     sticks:   dense  smooth     PW     G-vecs:    dense   smooth      PW
     Sum         979     499    151                72573    25753    4225
 
     Using Slab Decomposition
 


     bravais-lattice index     =            4
     lattice parameter (alat)  =       5.4575  a.u.
     unit-cell volume          =     409.4500 (a.u.)^3
     number of atoms/cell      =            4
     number of atomic types    =            3
     number of electrons       =        38.00
     number of Kohn-Sham states=           27
     kinetic-energy cutoff     =      60.0000  Ry
     charge density cutoff     =     480.0000  Ry
     scf convergence threshold =      1.0E-07
     mixing beta               =       0.3000
     number of iterations used =            8  local-TF  mixing
     Exchange-correlation= SLA  PW   PBX  PBC
                           (   1   4   3   4   0   0   0)

     GPU acceleration is ACTIVE.  1 visible GPUs per MPI rank
     GPU-aware MPI enabled


     GPU used by master process:

        Device Number: 0
        Device name: NVIDIA A100-SXM4-80GB
        Compute capability : 80
        Ratio of single to double precision performance  : 2
        Memory Clock Rate (KHz): 1593000
        Memory Bus Width (bits): 5120
        Peak Memory Bandwidth (GB/s): ******

     celldm(1)=   5.457529  celldm(2)=   0.000000  celldm(3)=   2.908587
     celldm(4)=   0.000000  celldm(5)=   0.000000  celldm(6)=   0.000000

     crystal axes: (cart. coord. in units of alat)
               a(1) = (   1.000000   0.000000   0.000000 )  
               a(2) = (  -0.500000   0.866025   0.000000 )  
               a(3) = (   0.000000   0.000000   2.908587 )  

     reciprocal axes: (cart. coord. in units 2 pi/alat)
               b(1) = (  1.000000  0.577350 -0.000000 )  
               b(2) = (  0.000000  1.154701  0.000000 )  
               b(3) = (  0.000000 -0.000000  0.343810 )  


     PseudoPot. # 1 for Co read from file:
     ../../pseudo/Co.pbe-spn-kjpaw_psl.0.3.1.UPF
     MD5 check sum: 3c0a43779828c046024e4f3be63f8e67
     Pseudo is Projector augmented-wave + core cor, Zval = 17.0
     Generated using &quot;atomic&quot; code by A. Dal Corso  v.6.2.2
     Shape of augmentation charge: PSQ
     Using radial grid of 1193 points,  6 beta functions with: 
                l(1) =   0
                l(2) =   0
                l(3) =   1
                l(4) =   1
                l(5) =   2
                l(6) =   2
     Q(r) pseudized with 0 coefficients 


     PseudoPot. # 2 for O  read from file:
     ../../pseudo/O.pbe-n-kjpaw_psl.1.0.0.UPF
     MD5 check sum: e99d9cef9b487d1ca56f5b95ecd0fd7a
     Pseudo is Projector augmented-wave + core cor, Zval =  6.0
     Generated using &quot;atomic&quot; code by A. Dal Corso  v.6.3
     Shape of augmentation charge: PSQ
     Using radial grid of 1095 points,  4 beta functions with: 
                l(1) =   0
                l(2) =   0
                l(3) =   1
                l(4) =   1
     Q(r) pseudized with 0 coefficients 


     PseudoPot. # 3 for Na read from file:
     ../../pseudo/Na.pbe-spn-kjpaw_psl.1.0.0.UPF
     MD5 check sum: 05b4deb74e3932c23ab016979dc8b5d4
     Pseudo is Projector augmented-wave + core cor, Zval =  9.0
     Generated using &quot;atomic&quot; code by A. Dal Corso  v.6.3
     Shape of augmentation charge: PSQ
     Using radial grid of 1121 points,  4 beta functions with: 
                l(1) =   0
                l(2) =   0
                l(3) =   1
                l(4) =   1
     Q(r) pseudized with 0 coefficients 


     atomic species   valence    mass     pseudopotential
     Co               17.00    58.93300     Co( 1.00)
     O                 6.00    15.99900     O ( 1.00)
     Na                9.00    22.98977     Na( 1.00)

     Starting magnetic structure 
     atomic species   magnetization
     Co              0.300
     O               0.000
     Na              0.000

      6 Sym. Ops. (no inversion) found


                                    s                        frac. trans.

      isym =  1     identity                                     

 cryst.   s( 1) = (     1          0          0      )
                  (     0          1          0      )
                  (     0          0          1      )

 cart.    s( 1) = (  1.0000000  0.0000000  0.0000000 )
                  (  0.0000000  1.0000000  0.0000000 )
                  (  0.0000000  0.0000000  1.0000000 )


      isym =  2     120 deg rotation - cryst. axis [0,0,1]       

 cryst.   s( 2) = (     0          1          0      )
                  (    -1         -1          0      )
                  (     0          0          1      )

 cart.    s( 2) = ( -0.5000000 -0.8660254  0.0000000 )
                  (  0.8660254 -0.5000000  0.0000000 )
                  (  0.0000000  0.0000000  1.0000000 )


      isym =  3     120 deg rotation - cryst. axis [0,0,-1]      

 cryst.   s( 3) = (    -1         -1          0      )
                  (     1          0          0      )
                  (     0          0          1      )

 cart.    s( 3) = ( -0.5000000  0.8660254  0.0000000 )
                  ( -0.8660254 -0.5000000  0.0000000 )
                  (  0.0000000  0.0000000  1.0000000 )


      isym =  4     inv. 180 deg rotation - cart. axis [1,0,0]   

 cryst.   s( 4) = (    -1          0          0      )
                  (     1          1          0      )
                  (     0          0          1      )

 cart.    s( 4) = ( -1.0000000  0.0000000  0.0000000 )
                  (  0.0000000  1.0000000  0.0000000 )
                  (  0.0000000  0.0000000  1.0000000 )


      isym =  5     inv. 180 deg rotation - cryst. axis [0,1,0]  

 cryst.   s( 5) = (     1          1          0      )
                  (     0         -1          0      )
                  (     0          0          1      )

 cart.    s( 5) = (  0.5000000  0.8660254  0.0000000 )
                  (  0.8660254 -0.5000000  0.0000000 )
                  (  0.0000000  0.0000000  1.0000000 )


      isym =  6     inv. 180 deg rotation - cryst. axis [1,1,0]  

 cryst.   s( 6) = (     0         -1          0      )
                  (    -1          0          0      )
                  (     0          0          1      )

 cart.    s( 6) = (  0.5000000 -0.8660254  0.0000000 )
                  ( -0.8660254 -0.5000000  0.0000000 )
                  (  0.0000000  0.0000000  1.0000000 )


     point group C_3v (3m)  
     there are  3 classes
     the character table:

       E     2C3   3s_v 
A_1    1.00  1.00  1.00
A_2    1.00  1.00 -1.00
E      2.00 -1.00  0.00

     the symmetry operations in each class and the name of the first element:

     E        1
          identity                                               
     2C3      2    3
          120 deg rotation - cryst. axis [0,0,1]                 
     3s_v     4    5    6
          inv. 180 deg rotation - cart. axis [1,0,0]             

   Cartesian axes

     site n.     atom                  positions (alat units)
         1        Co     tau(   1) = (   0.0000000   0.0000000   0.0000000  )
         2        O      tau(   2) = (  -0.0000000   0.5773503   0.3324100  )
         3        O      tau(   3) = (   0.5000000   0.2886751   2.5761773  )
         4        Na     tau(   4) = (   0.0000000   0.0000000   1.7139889  )

   Crystallographic axes

     site n.     atom                  positions (cryst. coord.)
         1        Co     tau(   1) = (  0.0000000  0.0000000  0.0000000  )
         2        O      tau(   2) = (  0.3333333  0.6666667  0.1142857  )
         3        O      tau(   3) = (  0.6666667  0.3333333  0.8857143  )
         4        Na     tau(   4) = (  0.0000000  0.0000000  0.5892857  )

     number of k points=    25  Marzari-Vanderbilt smearing, width (Ry)=  0.0200
                       cart. coord. in units 2pi/alat
        k(    1) = (   0.0000000   0.0000000   0.0000000), wk =   0.0052083
        k(    2) = (   0.0000000   0.0000000   0.1146032), wk =   0.0104167
        k(    3) = (   0.0000000   0.1443376   0.0000000), wk =   0.0312500
        k(    4) = (   0.0000000   0.1443376   0.1146032), wk =   0.0312500
        k(    5) = (   0.0000000   0.2886751   0.0000000), wk =   0.0312500
        k(    6) = (   0.0000000   0.2886751   0.1146032), wk =   0.0312500
        k(    7) = (   0.0000000   0.4330127   0.0000000), wk =   0.0312500
        k(    8) = (   0.0000000   0.4330127   0.1146032), wk =   0.0312500
        k(    9) = (   0.0000000  -0.5773503   0.0000000), wk =   0.0156250
        k(   10) = (   0.0000000  -0.5773503   0.1146032), wk =   0.0312500
        k(   11) = (   0.1250000   0.2165064   0.0000000), wk =   0.0312500
        k(   12) = (   0.1250000   0.2165064   0.1146032), wk =   0.0625000
        k(   13) = (   0.1250000   0.3608439   0.0000000), wk =   0.0625000
        k(   14) = (   0.1250000   0.3608439   0.1146032), wk =   0.0625000
        k(   15) = (   0.1250000   0.5051815   0.0000000), wk =   0.0625000
        k(   16) = (   0.1250000   0.5051815   0.1146032), wk =   0.0625000
        k(   17) = (   0.2500000   0.4330127   0.0000000), wk =   0.0312500
        k(   18) = (   0.2500000   0.4330127   0.1146032), wk =   0.0625000
        k(   19) = (   0.2500000   0.5773503   0.0000000), wk =   0.0312500
        k(   20) = (   0.2500000   0.5773503   0.1146032), wk =   0.0625000
        k(   21) = (   0.0000000  -0.1443376   0.1146032), wk =   0.0312500
        k(   22) = (   0.0000000  -0.2886751   0.1146032), wk =   0.0312500
        k(   23) = (   0.0000000  -0.4330127   0.1146032), wk =   0.0312500
        k(   24) = (  -0.1250000  -0.3608439   0.1146032), wk =   0.0625000
        k(   25) = (  -0.1250000  -0.5051815   0.1146032), wk =   0.0625000

                       cryst. coord.
        k(    1) = (   0.0000000   0.0000000   0.0000000), wk =   0.0052083
        k(    2) = (   0.0000000   0.0000000   0.3333333), wk =   0.0104167
        k(    3) = (   0.0000000   0.1250000   0.0000000), wk =   0.0312500
        k(    4) = (   0.0000000   0.1250000   0.3333333), wk =   0.0312500
        k(    5) = (   0.0000000   0.2500000   0.0000000), wk =   0.0312500
        k(    6) = (   0.0000000   0.2500000   0.3333333), wk =   0.0312500
        k(    7) = (   0.0000000   0.3750000   0.0000000), wk =   0.0312500
        k(    8) = (   0.0000000   0.3750000   0.3333333), wk =   0.0312500
        k(    9) = (   0.0000000  -0.5000000   0.0000000), wk =   0.0156250
        k(   10) = (   0.0000000  -0.5000000   0.3333333), wk =   0.0312500
        k(   11) = (   0.1250000   0.1250000   0.0000000), wk =   0.0312500
        k(   12) = (   0.1250000   0.1250000   0.3333333), wk =   0.0625000
        k(   13) = (   0.1250000   0.2500000   0.0000000), wk =   0.0625000
        k(   14) = (   0.1250000   0.2500000   0.3333333), wk =   0.0625000
        k(   15) = (   0.1250000   0.3750000   0.0000000), wk =   0.0625000
        k(   16) = (   0.1250000   0.3750000   0.3333333), wk =   0.0625000
        k(   17) = (   0.2500000   0.2500000   0.0000000), wk =   0.0312500
        k(   18) = (   0.2500000   0.2500000   0.3333333), wk =   0.0625000
        k(   19) = (   0.2500000   0.3750000   0.0000000), wk =   0.0312500
        k(   20) = (   0.2500000   0.3750000   0.3333333), wk =   0.0625000
        k(   21) = (   0.0000000  -0.1250000   0.3333333), wk =   0.0312500
        k(   22) = (   0.0000000  -0.2500000   0.3333333), wk =   0.0312500
        k(   23) = (   0.0000000  -0.3750000   0.3333333), wk =   0.0312500
        k(   24) = (  -0.1250000  -0.2500000   0.3333333), wk =   0.0625000
        k(   25) = (  -0.1250000  -0.3750000   0.3333333), wk =   0.0625000

     Dense  grid:    72573 G-vectors     FFT dimensions: (  40,  40, 120)

     Smooth grid:    25753 G-vectors     FFT dimensions: (  27,  27,  80)

     Dynamical RAM for                 wfc:       1.32 MB

     Dynamical RAM for     wfc (w. buffer):      67.51 MB

     Dynamical RAM for           str. fact:       3.32 MB

     Dynamical RAM for           local pot:       0.00 MB

     Dynamical RAM for          nlocal pot:       2.06 MB

     Dynamical RAM for                qrad:       5.27 MB

     Dynamical RAM for          rho,v,vnew:      15.43 MB

     Dynamical RAM for               rhoin:       5.14 MB

     Dynamical RAM for            rho*nmix:      35.44 MB

     Dynamical RAM for           G-vectors:       4.35 MB

     Dynamical RAM for          h,s,v(r/c):       0.13 MB

     Dynamical RAM for          <psi|beta>:       0.02 MB

     Dynamical RAM for                 psi:       2.65 MB

     Dynamical RAM for                hpsi:       2.65 MB

     Dynamical RAM for                spsi:       2.65 MB

     Dynamical RAM for      wfcinit/wfcrot:       2.66 MB

     Dynamical RAM for           addusdens:     209.29 MB

     Dynamical RAM for          addusforce:     211.52 MB

     Estimated static dynamical RAM per process >     116.31 MB

     Estimated max dynamical RAM per process >     363.27 MB

     Check: negative core charge=   -0.000007
     Generating pointlists ...
     new r_m :   0.2748 (alat units)  1.4998 (a.u.) for type    1
     new r_m :   0.2748 (alat units)  1.4998 (a.u.) for type    2
     new r_m :   0.4125 (alat units)  2.2512 (a.u.) for type    3

     Initial potential from superposition of free atoms

     starting charge      37.9934, renormalised to      38.0000
     Starting wfcs are   23 randomized atomic wfcs +    4 random wfcs
     Checking if some PAW data can be deallocated... 

     total cpu time spent up to now is        4.0 secs

     Self-consistent Calculation
[tb_dev] Currently allocated     6.54E-01 Mbytes, locked:    0 /   6
[tb_pin] Currently allocated     0.00E+00 Mbytes, locked:    0 /   0

     iteration #  1     ecut=    60.00 Ry     beta= 0.30
     Davidson diagonalization with overlap

---- Real-time Memory Report at c_bands before calling an iterative solver
           689 MiB given to the printing process from OS
             0 MiB allocation reported by mallinfo(arena+hblkhd)
        841887 MiB available memory on the node where the printing process lives
     GPU memory used/free/total (MiB): 1056 / 80094 / 81151
------------------
     ethr =  1.00E-02,  avg # of iterations =  9.9

     total cpu time spent up to now is        6.2 secs

     total energy              =    -569.01340686 Ry
     estimated scf accuracy    <       1.75448991 Ry

     total magnetization       =     4.15 Bohr mag/cell
     absolute magnetization    =     4.16 Bohr mag/cell
[tb_dev] Currently allocated     3.05E-05 Mbytes, locked:    0 /   2
[tb_pin] Currently allocated     0.00E+00 Mbytes, locked:    0 /   0

     iteration #  2     ecut=    60.00 Ry     beta= 0.30
     Davidson diagonalization with overlap

---- Real-time Memory Report at c_bands before calling an iterative solver
           733 MiB given to the printing process from OS
             0 MiB allocation reported by mallinfo(arena+hblkhd)
        842320 MiB available memory on the node where the printing process lives
     GPU memory used/free/total (MiB): 1074 / 80076 / 81151
------------------
     ethr =  4.62E-03,  avg # of iterations =  1.9

     total cpu time spent up to now is        7.3 secs

     total energy              =    -569.04146317 Ry
     estimated scf accuracy    <       0.77905397 Ry

     total magnetization       =     3.77 Bohr mag/cell
     absolute magnetization    =     3.77 Bohr mag/cell
[tb_dev] Currently allocated     3.05E-05 Mbytes, locked:    0 /   2
[tb_pin] Currently allocated     0.00E+00 Mbytes, locked:    0 /   0

     iteration #  3     ecut=    60.00 Ry     beta= 0.30
     Davidson diagonalization with overlap

---- Real-time Memory Report at c_bands before calling an iterative solver
           738 MiB given to the printing process from OS
             0 MiB allocation reported by mallinfo(arena+hblkhd)
        841954 MiB available memory on the node where the printing process lives
     GPU memory used/free/total (MiB): 1074 / 80076 / 81151
------------------
     ethr =  2.05E-03,  avg # of iterations =  2.0

     total cpu time spent up to now is        8.5 secs

     total energy              =    -569.09389194 Ry
     estimated scf accuracy    <       0.79598066 Ry

     total magnetization       =     1.99 Bohr mag/cell
     absolute magnetization    =     2.03 Bohr mag/cell
[tb_dev] Currently allocated     3.05E-05 Mbytes, locked:    0 /   2
[tb_pin] Currently allocated     0.00E+00 Mbytes, locked:    0 /   0

     iteration #  4     ecut=    60.00 Ry     beta= 0.30
     Davidson diagonalization with overlap

---- Real-time Memory Report at c_bands before calling an iterative solver
           738 MiB given to the printing process from OS
             0 MiB allocation reported by mallinfo(arena+hblkhd)
        841685 MiB available memory on the node where the printing process lives
     GPU memory used/free/total (MiB): 1074 / 80076 / 81151
------------------
     ethr =  2.05E-03,  avg # of iterations =  1.2

     total cpu time spent up to now is        9.6 secs

     total energy              =    -569.11974170 Ry
     estimated scf accuracy    <       0.51793897 Ry

     total magnetization       =     3.39 Bohr mag/cell
     absolute magnetization    =     3.40 Bohr mag/cell
[tb_dev] Currently allocated     3.05E-05 Mbytes, locked:    0 /   2
[tb_pin] Currently allocated     0.00E+00 Mbytes, locked:    0 /   0

     iteration #  5     ecut=    60.00 Ry     beta= 0.30
     Davidson diagonalization with overlap

---- Real-time Memory Report at c_bands before calling an iterative solver
           739 MiB given to the printing process from OS
             0 MiB allocation reported by mallinfo(arena+hblkhd)
        841453 MiB available memory on the node where the printing process lives
     GPU memory used/free/total (MiB): 1074 / 80076 / 81151
------------------
     ethr =  1.36E-03,  avg # of iterations =  1.8

     total cpu time spent up to now is       10.7 secs

     total energy              =    -569.17408457 Ry
     estimated scf accuracy    <       0.13666210 Ry

     total magnetization       =     1.09 Bohr mag/cell
     absolute magnetization    =     1.38 Bohr mag/cell
[tb_dev] Currently allocated     3.05E-05 Mbytes, locked:    0 /   2
[tb_pin] Currently allocated     0.00E+00 Mbytes, locked:    0 /   0

     iteration #  6     ecut=    60.00 Ry     beta= 0.30
     Davidson diagonalization with overlap

---- Real-time Memory Report at c_bands before calling an iterative solver
           740 MiB given to the printing process from OS
             0 MiB allocation reported by mallinfo(arena+hblkhd)
        841208 MiB available memory on the node where the printing process lives
     GPU memory used/free/total (MiB): 1074 / 80076 / 81151
------------------
     ethr =  3.60E-04,  avg # of iterations =  4.4

     total cpu time spent up to now is       12.1 secs

     total energy              =    -569.20016920 Ry
     estimated scf accuracy    <       0.13276787 Ry

     total magnetization       =     0.62 Bohr mag/cell
     absolute magnetization    =     1.00 Bohr mag/cell
[tb_dev] Currently allocated     3.05E-05 Mbytes, locked:    0 /   2
[tb_pin] Currently allocated     0.00E+00 Mbytes, locked:    0 /   0

     iteration #  7     ecut=    60.00 Ry     beta= 0.30
     Davidson diagonalization with overlap

---- Real-time Memory Report at c_bands before calling an iterative solver
           743 MiB given to the printing process from OS
             0 MiB allocation reported by mallinfo(arena+hblkhd)
        841097 MiB available memory on the node where the printing process lives
     GPU memory used/free/total (MiB): 1074 / 80076 / 81151
------------------
     ethr =  3.49E-04,  avg # of iterations =  2.8

     total cpu time spent up to now is       13.4 secs

     total energy              =    -569.21573991 Ry
     estimated scf accuracy    <       0.02589509 Ry

     total magnetization       =     0.60 Bohr mag/cell
     absolute magnetization    =     0.83 Bohr mag/cell
[tb_dev] Currently allocated     3.05E-05 Mbytes, locked:    0 /   2
[tb_pin] Currently allocated     0.00E+00 Mbytes, locked:    0 /   0

     iteration #  8     ecut=    60.00 Ry     beta= 0.30
     Davidson diagonalization with overlap

---- Real-time Memory Report at c_bands before calling an iterative solver
           743 MiB given to the printing process from OS
             0 MiB allocation reported by mallinfo(arena+hblkhd)
        841061 MiB available memory on the node where the printing process lives
     GPU memory used/free/total (MiB): 1074 / 80076 / 81151
------------------
     ethr =  6.81E-05,  avg # of iterations =  6.9

     total cpu time spent up to now is       15.2 secs

     total energy              =    -569.22076109 Ry
     estimated scf accuracy    <       0.01052020 Ry

     total magnetization       =     0.49 Bohr mag/cell
     absolute magnetization    =     0.58 Bohr mag/cell
[tb_dev] Currently allocated     3.05E-05 Mbytes, locked:    0 /   2
[tb_pin] Currently allocated     0.00E+00 Mbytes, locked:    0 /   0

     iteration #  9     ecut=    60.00 Ry     beta= 0.30
     Davidson diagonalization with overlap

---- Real-time Memory Report at c_bands before calling an iterative solver
           746 MiB given to the printing process from OS
             0 MiB allocation reported by mallinfo(arena+hblkhd)
        841121 MiB available memory on the node where the printing process lives
     GPU memory used/free/total (MiB): 1074 / 80076 / 81151
------------------
     ethr =  2.77E-05,  avg # of iterations =  2.3

     total cpu time spent up to now is       16.4 secs

     total energy              =    -569.22004837 Ry
     estimated scf accuracy    <       0.00919657 Ry

     total magnetization       =     0.52 Bohr mag/cell
     absolute magnetization    =     0.58 Bohr mag/cell
[tb_dev] Currently allocated     3.05E-05 Mbytes, locked:    0 /   2
[tb_pin] Currently allocated     0.00E+00 Mbytes, locked:    0 /   0

     iteration # 10     ecut=    60.00 Ry     beta= 0.30
     Davidson diagonalization with overlap

---- Real-time Memory Report at c_bands before calling an iterative solver
           749 MiB given to the printing process from OS
             0 MiB allocation reported by mallinfo(arena+hblkhd)
        841123 MiB available memory on the node where the printing process lives
     GPU memory used/free/total (MiB): 1074 / 80076 / 81151
------------------
     ethr =  2.42E-05,  avg # of iterations =  1.9

     total cpu time spent up to now is       17.6 secs

     total energy              =    -569.22166280 Ry
     estimated scf accuracy    <       0.00191395 Ry

     total magnetization       =     0.61 Bohr mag/cell
     absolute magnetization    =     0.64 Bohr mag/cell
[tb_dev] Currently allocated     3.05E-05 Mbytes, locked:    0 /   2
[tb_pin] Currently allocated     0.00E+00 Mbytes, locked:    0 /   0

     iteration # 11     ecut=    60.00 Ry     beta= 0.30
     Davidson diagonalization with overlap

---- Real-time Memory Report at c_bands before calling an iterative solver
           749 MiB given to the printing process from OS
             0 MiB allocation reported by mallinfo(arena+hblkhd)
        841128 MiB available memory on the node where the printing process lives
     GPU memory used/free/total (MiB): 1074 / 80076 / 81151
------------------
     c_bands:  1 eigenvalues not converged
     ethr =  5.04E-06,  avg # of iterations =  5.6

     total cpu time spent up to now is       19.2 secs

     total energy              =    -569.22200814 Ry
     estimated scf accuracy    <       0.00030617 Ry

     total magnetization       =     0.58 Bohr mag/cell
     absolute magnetization    =     0.61 Bohr mag/cell
[tb_dev] Currently allocated     3.05E-05 Mbytes, locked:    0 /   2
[tb_pin] Currently allocated     0.00E+00 Mbytes, locked:    0 /   0

     iteration # 12     ecut=    60.00 Ry     beta= 0.30
     Davidson diagonalization with overlap

---- Real-time Memory Report at c_bands before calling an iterative solver
           749 MiB given to the printing process from OS
             0 MiB allocation reported by mallinfo(arena+hblkhd)
        841111 MiB available memory on the node where the printing process lives
     GPU memory used/free/total (MiB): 1074 / 80076 / 81151
------------------
     ethr =  8.06E-07,  avg # of iterations =  6.0

     total cpu time spent up to now is       20.9 secs

     total energy              =    -569.22212786 Ry
     estimated scf accuracy    <       0.00051557 Ry

     total magnetization       =     0.57 Bohr mag/cell
     absolute magnetization    =     0.60 Bohr mag/cell
[tb_dev] Currently allocated     3.05E-05 Mbytes, locked:    0 /   2
[tb_pin] Currently allocated     0.00E+00 Mbytes, locked:    0 /   0

     iteration # 13     ecut=    60.00 Ry     beta= 0.30
     Davidson diagonalization with overlap

---- Real-time Memory Report at c_bands before calling an iterative solver
           750 MiB given to the printing process from OS
             0 MiB allocation reported by mallinfo(arena+hblkhd)
        841109 MiB available memory on the node where the printing process lives
     GPU memory used/free/total (MiB): 1074 / 80076 / 81151
------------------
     ethr =  8.06E-07,  avg # of iterations =  2.2

     total cpu time spent up to now is       22.1 secs

     total energy              =    -569.22218720 Ry
     estimated scf accuracy    <       0.00006737 Ry

     total magnetization       =     0.58 Bohr mag/cell
     absolute magnetization    =     0.61 Bohr mag/cell
[tb_dev] Currently allocated     3.05E-05 Mbytes, locked:    0 /   2
[tb_pin] Currently allocated     0.00E+00 Mbytes, locked:    0 /   0

     iteration # 14     ecut=    60.00 Ry     beta= 0.30
     Davidson diagonalization with overlap

---- Real-time Memory Report at c_bands before calling an iterative solver
           750 MiB given to the printing process from OS
             0 MiB allocation reported by mallinfo(arena+hblkhd)
        841095 MiB available memory on the node where the printing process lives
     GPU memory used/free/total (MiB): 1074 / 80076 / 81151
------------------
     ethr =  1.77E-07,  avg # of iterations =  4.4

     total cpu time spent up to now is       23.6 secs

     total energy              =    -569.22223128 Ry
     estimated scf accuracy    <       0.00004657 Ry

     total magnetization       =     0.58 Bohr mag/cell
     absolute magnetization    =     0.61 Bohr mag/cell
[tb_dev] Currently allocated     3.05E-05 Mbytes, locked:    0 /   2
[tb_pin] Currently allocated     0.00E+00 Mbytes, locked:    0 /   0

     iteration # 15     ecut=    60.00 Ry     beta= 0.30
     Davidson diagonalization with overlap

---- Real-time Memory Report at c_bands before calling an iterative solver
           750 MiB given to the printing process from OS
             0 MiB allocation reported by mallinfo(arena+hblkhd)
        841110 MiB available memory on the node where the printing process lives
     GPU memory used/free/total (MiB): 1074 / 80076 / 81151
------------------
     ethr =  1.23E-07,  avg # of iterations =  1.1

     total cpu time spent up to now is       24.7 secs

     total energy              =    -569.22223296 Ry
     estimated scf accuracy    <       0.00001818 Ry

     total magnetization       =     0.58 Bohr mag/cell
     absolute magnetization    =     0.60 Bohr mag/cell
[tb_dev] Currently allocated     3.05E-05 Mbytes, locked:    0 /   2
[tb_pin] Currently allocated     0.00E+00 Mbytes, locked:    0 /   0

     iteration # 16     ecut=    60.00 Ry     beta= 0.30
     Davidson diagonalization with overlap

---- Real-time Memory Report at c_bands before calling an iterative solver
           751 MiB given to the printing process from OS
             0 MiB allocation reported by mallinfo(arena+hblkhd)
        841109 MiB available memory on the node where the printing process lives
     GPU memory used/free/total (MiB): 1074 / 80076 / 81151
------------------
     ethr =  4.78E-08,  avg # of iterations =  3.7

     total cpu time spent up to now is       26.1 secs

     total energy              =    -569.22223722 Ry
     estimated scf accuracy    <       0.00000663 Ry

     total magnetization       =     0.58 Bohr mag/cell
     absolute magnetization    =     0.60 Bohr mag/cell
[tb_dev] Currently allocated     3.05E-05 Mbytes, locked:    0 /   2
[tb_pin] Currently allocated     0.00E+00 Mbytes, locked:    0 /   0

     iteration # 17     ecut=    60.00 Ry     beta= 0.30
     Davidson diagonalization with overlap

---- Real-time Memory Report at c_bands before calling an iterative solver
           751 MiB given to the printing process from OS
             0 MiB allocation reported by mallinfo(arena+hblkhd)
        841143 MiB available memory on the node where the printing process lives
     GPU memory used/free/total (MiB): 1074 / 80076 / 81151
------------------
     ethr =  1.74E-08,  avg # of iterations =  4.6

     total cpu time spent up to now is       27.6 secs

     total energy              =    -569.22223842 Ry
     estimated scf accuracy    <       0.00000504 Ry

     total magnetization       =     0.58 Bohr mag/cell
     absolute magnetization    =     0.60 Bohr mag/cell
[tb_dev] Currently allocated     3.05E-05 Mbytes, locked:    0 /   2
[tb_pin] Currently allocated     0.00E+00 Mbytes, locked:    0 /   0

     iteration # 18     ecut=    60.00 Ry     beta= 0.30
     Davidson diagonalization with overlap

---- Real-time Memory Report at c_bands before calling an iterative solver
           751 MiB given to the printing process from OS
             0 MiB allocation reported by mallinfo(arena+hblkhd)
        841157 MiB available memory on the node where the printing process lives
     GPU memory used/free/total (MiB): 1074 / 80076 / 81151
------------------
     ethr =  1.33E-08,  avg # of iterations =  2.0

     total cpu time spent up to now is       28.8 secs

     total energy              =    -569.22223896 Ry
     estimated scf accuracy    <       0.00000063 Ry

     total magnetization       =     0.58 Bohr mag/cell
     absolute magnetization    =     0.60 Bohr mag/cell
[tb_dev] Currently allocated     3.05E-05 Mbytes, locked:    0 /   2
[tb_pin] Currently allocated     0.00E+00 Mbytes, locked:    0 /   0

     iteration # 19     ecut=    60.00 Ry     beta= 0.30
     Davidson diagonalization with overlap

---- Real-time Memory Report at c_bands before calling an iterative solver
           751 MiB given to the printing process from OS
             0 MiB allocation reported by mallinfo(arena+hblkhd)
        841175 MiB available memory on the node where the printing process lives
     GPU memory used/free/total (MiB): 1074 / 80076 / 81151
------------------
     ethr =  1.64E-09,  avg # of iterations =  4.6

     total cpu time spent up to now is       30.3 secs

     total energy              =    -569.22223941 Ry
     estimated scf accuracy    <       0.00000020 Ry

     total magnetization       =     0.58 Bohr mag/cell
     absolute magnetization    =     0.60 Bohr mag/cell
[tb_dev] Currently allocated     3.05E-05 Mbytes, locked:    0 /   2
[tb_pin] Currently allocated     0.00E+00 Mbytes, locked:    0 /   0

     iteration # 20     ecut=    60.00 Ry     beta= 0.30
     Davidson diagonalization with overlap

---- Real-time Memory Report at c_bands before calling an iterative solver
           751 MiB given to the printing process from OS
             0 MiB allocation reported by mallinfo(arena+hblkhd)
        841179 MiB available memory on the node where the printing process lives
     GPU memory used/free/total (MiB): 1074 / 80076 / 81151
------------------
     ethr =  5.35E-10,  avg # of iterations =  3.7
 
     Magnetic moment per site  (integrated on atomic sphere of radius R)
     atom   1 (R=0.275)  charge= 14.1084  magn=  0.4513
     atom   2 (R=0.275)  charge=  5.2089  magn=  0.0511
     atom   3 (R=0.275)  charge=  5.2462  magn=  0.0382
     atom   4 (R=0.413)  charge=  8.2215  magn= -0.0039

     total cpu time spent up to now is       31.7 secs

     End of self-consistent calculation

 ------ SPIN UP ------------


          k = 0.0000 0.0000 0.0000 (  3231 PWs)   bands (ev):

   -90.3591 -53.5930 -53.5688 -53.5688 -48.1616 -20.0073 -19.9740 -19.9740
   -14.1273 -12.2195  -0.5168   0.1718   0.1718   2.6983   3.5969   3.7504
     3.7504   3.8132   3.8132   5.1248   7.6088   7.6088   8.8136  11.7956
    14.9088  16.5490  20.3667

     occupation numbers 
     1.0000   1.0000   1.0000   1.0000   1.0000   1.0000   1.0000   1.0000
     1.0000   1.0000   1.0000   1.0000   1.0000   1.0000   1.0000   1.0000
     1.0000   1.0000   1.0000   0.9429   0.0000   0.0000   0.0000   0.0000
     0.0000   0.0000   0.0000

          k = 0.0000 0.0000 0.1146 (  3237 PWs)   bands (ev):

   -90.3591 -53.5931 -53.5688 -53.5688 -48.1616 -20.0075 -19.9741 -19.9741
   -14.1272 -12.2198  -0.4910   0.1718   0.1718   2.4004   3.7503   3.7503
     3.8131   3.8131   4.0530   5.0387   7.6089   7.6089   8.4398  12.6089
    14.2256  16.5531  20.4386

     occupation numbers 
     1.0000   1.0000   1.0000   1.0000   1.0000   1.0000   1.0000   1.0000
     1.0000   1.0000   1.0000   1.0000   1.0000   1.0000   1.0000   1.0000
     1.0000   1.0000   1.0000   1.0540   0.0000   0.0000   0.0000   0.0000
     0.0000   0.0000   0.0000

          k = 0.0000 0.1443 0.0000 (  3229 PWs)   bands (ev):

   -90.3583 -53.5918 -53.5770 -53.5708 -48.1564 -20.0182 -20.0001 -19.9835
   -13.9574 -12.2200  -0.3474   0.0117   0.2814   2.5930   3.0427   3.1126
     3.9036   4.2050   4.4201   5.2134   7.1170   7.5095   9.1544  12.3815
    15.5118  16.8161  19.2221

     occupation numbers 
     1.0000   1.0000   1.0000   1.0000   1.0000   1.0000   1.0000   1.0000
     1.0000   1.0000   1.0000   1.0000   1.0000   1.0000   1.0000   1.0000
     1.0000   1.0000   1.0002   0.7419   0.0000   0.0000   0.0000   0.0000
     0.0000   0.0000   0.0000

          k = 0.0000 0.1443 0.1146 (  3219 PWs)   bands (ev):

   -90.3583 -53.5918 -53.5770 -53.5708 -48.1564 -20.0181 -20.0000 -19.9835
   -13.9572 -12.2202  -0.3310   0.0121   0.2814   2.5987   2.8601   3.0427
     4.1047   4.4028   4.4201   5.0981   7.1731   7.5094   8.8239  13.1048
    14.7212  17.0793  19.2128

     occupation numbers 
     1.0000   1.0000   1.0000   1.0000   1.0000   1.0000   1.0000   1.0000
     1.0000   1.0000   1.0000   1.0000   1.0000   1.0000   1.0000   1.0000
     1.0000   1.0002   1.0002   0.9871   0.0000   0.0000   0.0000   0.0000
     0.0000   0.0000   0.0000

          k = 0.0000 0.2887 0.0000 (  3212 PWs)   bands (ev):

   -90.3565 -53.5969 -53.5889 -53.5755 -48.1439 -20.1230 -20.0061 -19.9828
   -13.5128 -12.2329  -0.3703   0.2289   0.5406   1.2598   2.4682   3.5452
     4.2762   4.6594   4.6639   5.2922   6.5543   7.3876   9.9761  13.6969
    15.3979  16.7551  17.4837

     occupation numbers 
     1.0000   1.0000   1.0000   1.0000   1.0000   1.0000   1.0000   1.0000
     1.0000   1.0000   1.0000   1.0000   1.0000   1.0000   1.0000   1.0000
     1.0000   1.0104   1.0110   0.5264   0.0000   0.0000   0.0000   0.0000
     0.0000   0.0000   0.0000

          k = 0.0000 0.2887 0.1146 (  3212 PWs)   bands (ev):

   -90.3565 -53.5968 -53.5889 -53.5755 -48.1439 -20.1229 -20.0062 -19.9828
   -13.5128 -12.2330  -0.3757   0.2392   0.5406   1.2683   2.4681   3.4887
     4.2273   4.6594   4.8619   5.1167   6.7093   7.3875   9.7690  14.1611
    15.3530  15.9371  18.3508

     occupation numbers 
     1.0000   1.0000   1.0000   1.0000   1.0000   1.0000   1.0000   1.0000
     1.0000   1.0000   1.0000   1.0000   1.0000   1.0000   1.0000   1.0000
     1.0000   1.0104   1.0638   0.9572   0.0000   0.0000   0.0000   0.0000
     0.0000   0.0000   0.0000

          k = 0.0000 0.4330 0.0000 (  3198 PWs)   bands (ev):

   -90.3547 -53.6166 -53.5859 -53.5802 -48.1313 -20.2260 -20.0287 -19.9652
   -12.9881 -12.2855  -0.8096   0.2191   0.7431   1.2935   2.2660   3.0781
     4.1962   4.4496   4.6935   6.4054   7.0221   7.4231  11.2382  12.1391
    15.2478  15.9792  17.5342

     occupation numbers 
     1.0000   1.0000   1.0000   1.0000   1.0000   1.0000   1.0000   1.0000
     1.0000   1.0000   1.0000   1.0000   1.0000   1.0000   1.0000   1.0000
     1.0000   1.0004   1.0155   0.0000   0.0000   0.0000   0.0000   0.0000
     0.0000   0.0000   0.0000

          k = 0.0000 0.4330 0.1146 (  3216 PWs)   bands (ev):

   -90.3548 -53.6167 -53.5860 -53.5803 -48.1313 -20.2261 -20.0290 -19.9653
   -12.9881 -12.2856  -0.8104   0.2172   0.7430   1.2997   2.2659   3.0821
     4.1935   4.4495   4.6973   6.2639   7.1884   7.4230  11.1861  12.0833
    15.4146  16.1998  16.9851

     occupation numbers 
     1.0000   1.0000   1.0000   1.0000   1.0000   1.0000   1.0000   1.0000
     1.0000   1.0000   1.0000   1.0000   1.0000   1.0000   1.0000   1.0000
     1.0000   1.0004   1.0162   0.0000   0.0000   0.0000   0.0000   0.0000
     0.0000   0.0000   0.0000

          k = 0.0000-0.5774 0.0000 (  3214 PWs)   bands (ev):

   -90.3540 -53.6248 -53.5848 -53.5823 -48.1261 -20.2682 -20.0383 -19.9581
   -12.7009 -12.3619  -1.1914   0.3835   0.7845   1.4912   2.3056   2.7868
     3.9775   4.2543   4.6354   6.8635   7.4712   8.5263   9.8008  12.9862
    13.6018  16.5091  17.1317

     occupation numbers 
     1.0000   1.0000   1.0000   1.0000   1.0000   1.0000   1.0000   1.0000
     1.0000   1.0000   1.0000   1.0000   1.0000   1.0000   1.0000   1.0000
     1.0000   1.0000   1.0077   0.0000   0.0000   0.0000   0.0000   0.0000
     0.0000   0.0000   0.0000

          k = 0.0000-0.5774 0.1146 (  3216 PWs)   bands (ev):

   -90.3540 -53.6249 -53.5847 -53.5823 -48.1261 -20.2685 -20.0383 -19.9580
   -12.7009 -12.3619  -1.1914   0.3817   0.7845   1.4923   2.3056   2.7920
     3.9766   4.2542   4.6341   6.8560   7.4712   8.5357   9.7643  12.9767
    13.8007  16.1522  17.1240

     occupation numbers 
     1.0000   1.0000   1.0000   1.0000   1.0000   1.0000   1.0000   1.0000
     1.0000   1.0000   1.0000   1.0000   1.0000   1.0000   1.0000   1.0000
     1.0000   1.0000   1.0075   0.0000   0.0000   0.0000   0.0000   0.0000
     0.0000   0.0000   0.0000

          k = 0.1250 0.2165 0.0000 (  3225 PWs)   bands (ev):

   -90.3571 -53.5901 -53.5898 -53.5751 -48.1476 -20.0876 -20.0046 -19.9878
   -13.6499 -12.2259  -0.2931   0.1281   0.4282   1.7247   2.3344   3.5597
     4.2652   4.4158   4.7643   5.2351   6.7116   7.2700   9.7211  13.3386
    16.2476  16.8496  17.2999

     occupation numbers 
     1.0000   1.0000   1.0000   1.0000   1.0000   1.0000   1.0000   1.0000
     1.0000   1.0000   1.0000   1.0000   1.0000   1.0000   1.0000   1.0000
     1.0000   1.0002   1.0317   0.6838   0.0000   0.0000   0.0000   0.0000
     0.0000   0.0000   0.0000

          k = 0.1250 0.2165 0.1146 (  3212 PWs)   bands (ev):

   -90.3570 -53.5901 -53.5897 -53.5750 -48.1475 -20.0876 -20.0045 -19.9877
   -13.6498 -12.2261  -0.2970   0.1399   0.4287   1.7325   2.3344   3.4247
     4.2626   4.5230   4.8767   5.1423   6.7990   7.2371   9.5412  13.8002
    15.5773  16.6793  18.0257

     occupation numbers 
     1.0000   1.0000   1.0000   1.0000   1.0000   1.0000   1.0000   1.0000
     1.0000   1.0000   1.0000   1.0000   1.0000   1.0000   1.0000   1.0000
     1.0000   1.0015   1.0686   0.9094   0.0000   0.0000   0.0000   0.0000
     0.0000   0.0000   0.0000

          k = 0.1250 0.3608 0.0000 (  3216 PWs)   bands (ev):

   -90.3553 -53.6079 -53.5869 -53.5817 -48.1350 -20.1805 -20.0382 -19.9705
   -13.1650 -12.2522  -0.4120   0.1172   0.7299   1.1771   1.9024   3.3875
     4.3016   4.5732   4.8805   5.9573   6.7317   7.1851  10.7655  13.6526
    14.7723  17.0038  17.5646

     occupation numbers 
     1.0000   1.0000   1.0000   1.0000   1.0000   1.0000   1.0000   1.0000
     1.0000   1.0000   1.0000   1.0000   1.0000   1.0000   1.0000   1.0000
     1.0000   1.0032   1.0697   0.0001   0.0000   0.0000   0.0000   0.0000
     0.0000   0.0000   0.0000

          k = 0.1250 0.3608 0.1146 (  3205 PWs)   bands (ev):

   -90.3553 -53.6078 -53.5869 -53.5817 -48.1350 -20.1803 -20.0381 -19.9704
   -13.1649 -12.2523  -0.4150   0.1171   0.7318   1.1852   1.9026   3.3825
     4.3010   4.5809   4.8652   5.8695   6.9120   7.1270  10.7013  13.6376
    14.9384  16.6206  17.8816

     occupation numbers 
     1.0000   1.0000   1.0000   1.0000   1.0000   1.0000   1.0000   1.0000
     1.0000   1.0000   1.0000   1.0000   1.0000   1.0000   1.0000   1.0000
     1.0000   1.0036   1.0649   0.0004   0.0000   0.0000   0.0000   0.0000
     0.0000   0.0000   0.0000

          k = 0.1250 0.5052 0.0000 (  3220 PWs)   bands (ev):

   -90.3540 -53.6205 -53.5867 -53.5848 -48.1261 -20.2447 -20.0624 -19.9582
   -12.7493 -12.3142  -0.9064   0.1201   0.9330   1.5028   1.8307   2.8019
     4.0716   4.3714   4.8146   6.7985   7.1810   8.0840  10.8267  12.4386
    14.8038  15.8843  17.1051

     occupation numbers 
     1.0000   1.0000   1.0000   1.0000   1.0000   1.0000   1.0000   1.0000
     1.0000   1.0000   1.0000   1.0000   1.0000   1.0000   1.0000   1.0000
     1.0000   1.0001   1.0475   0.0000   0.0000   0.0000   0.0000   0.0000
     0.0000   0.0000   0.0000

          k = 0.1250 0.5052 0.1146 (  3217 PWs)   bands (ev):

   -90.3540 -53.6204 -53.5867 -53.5848 -48.1261 -20.2446 -20.0625 -19.9582
   -12.7493 -12.3142  -0.9064   0.1191   0.9325   1.5048   1.8305   2.8055
     4.0711   4.3720   4.8121   6.7751   7.1994   8.0879  10.8074  12.4295
    14.9451  15.8197  17.2231

     occupation numbers 
     1.0000   1.0000   1.0000   1.0000   1.0000   1.0000   1.0000   1.0000
     1.0000   1.0000   1.0000   1.0000   1.0000   1.0000   1.0000   1.0000
     1.0000   1.0001   1.0467   0.0000   0.0000   0.0000   0.0000   0.0000
     0.0000   0.0000   0.0000

          k = 0.2500 0.4330 0.0000 (  3215 PWs)   bands (ev):

   -90.3540 -53.6142 -53.5929 -53.5848 -48.1261 -20.2115 -20.0959 -19.9583
   -12.7888 -12.2754  -0.3935  -0.1467   0.7364   1.3813   1.6648   2.8451
     4.1366   4.4610   4.9892   6.7327   6.8816   7.8504  11.8700  12.3139
    14.6509  16.6378  17.0551

     occupation numbers 
     1.0000   1.0000   1.0000   1.0000   1.0000   1.0000   1.0000   1.0000
     1.0000   1.0000   1.0000   1.0000   1.0000   1.0000   1.0000   1.0000
     1.0000   1.0005   1.0790   0.0000   0.0000   0.0000   0.0000   0.0000
     0.0000   0.0000   0.0000

          k = 0.2500 0.4330 0.1146 (  3206 PWs)   bands (ev):

   -90.3540 -53.6142 -53.5928 -53.5847 -48.1261 -20.2114 -20.0958 -19.9581
   -12.7888 -12.2754  -0.3938  -0.1476   0.7366   1.3832   1.6664   2.8449
     4.1371   4.4622   4.9815   6.7695   6.8685   7.8107  11.9102  12.3244
    14.5946  16.6298  17.0703

     occupation numbers 
     1.0000   1.0000   1.0000   1.0000   1.0000   1.0000   1.0000   1.0000
     1.0000   1.0000   1.0000   1.0000   1.0000   1.0000   1.0000   1.0000
     1.0000   1.0005   1.0808   0.0000   0.0000   0.0000   0.0000   0.0000
     0.0000   0.0000   0.0000

          k = 0.2500 0.5774 0.0000 (  3210 PWs)   bands (ev):

   -90.3535 -53.6146 -53.5996 -53.5839 -48.1224 -20.2126 -20.1314 -19.9531
   -12.6230 -12.2862  -0.5177  -0.0727   0.5515   1.5340   1.8779   2.4031
     3.8776   4.6506   4.9081   6.8473   6.8844   9.4068  10.3951  13.7528
    14.0434  14.7318  16.7300

     occupation numbers 
     1.0000   1.0000   1.0000   1.0000   1.0000   1.0000   1.0000   1.0000
     1.0000   1.0000   1.0000   1.0000   1.0000   1.0000   1.0000   1.0000
     1.0000   1.0093   1.0773   0.0000   0.0000   0.0000   0.0000   0.0000
     0.0000   0.0000   0.0000

          k = 0.2500 0.5774 0.1146 (  3215 PWs)   bands (ev):

   -90.3535 -53.6147 -53.5996 -53.5840 -48.1224 -20.2127 -20.1314 -19.9532
   -12.6230 -12.2862  -0.5178  -0.0730   0.5519   1.5340   1.8778   2.4035
     3.8777   4.6508   4.9063   6.8544   6.8916   9.3755  10.3713  13.7602
    14.0935  14.8148  16.7523

     occupation numbers 
     1.0000   1.0000   1.0000   1.0000   1.0000   1.0000   1.0000   1.0000
     1.0000   1.0000   1.0000   1.0000   1.0000   1.0000   1.0000   1.0000
     1.0000   1.0094   1.0769   0.0000   0.0000   0.0000   0.0000   0.0000
     0.0000   0.0000   0.0000

          k = 0.0000-0.1443 0.1146 (  3219 PWs)   bands (ev):

   -90.3583 -53.5918 -53.5770 -53.5708 -48.1564 -20.0181 -20.0000 -19.9835
   -13.9572 -12.2203  -0.3299   0.0110   0.2814   2.5736   2.8917   3.0427
     4.0975   4.3967   4.4201   5.1177   7.1281   7.5096   8.8731  13.0516
    14.7602  17.0895  19.1682

     occupation numbers 
     1.0000   1.0000   1.0000   1.0000   1.0000   1.0000   1.0000   1.0000
     1.0000   1.0000   1.0000   1.0000   1.0000   1.0000   1.0000   1.0000
     1.0000   1.0001   1.0002   0.9554   0.0000   0.0000   0.0000   0.0000
     0.0000   0.0000   0.0000

          k = 0.0000-0.2887 0.1146 (  3212 PWs)   bands (ev):

   -90.3565 -53.5968 -53.5889 -53.5755 -48.1439 -20.1229 -20.0062 -19.9828
   -13.5128 -12.2330  -0.3737   0.2354   0.5406   1.2704   2.4681   3.4732
     4.2449   4.6594   4.7604   5.3148   6.5474   7.3876   9.8999  13.9061
    15.5042  16.0260  18.2508

     occupation numbers 
     1.0000   1.0000   1.0000   1.0000   1.0000   1.0000   1.0000   1.0000
     1.0000   1.0000   1.0000   1.0000   1.0000   1.0000   1.0000   1.0000
     1.0000   1.0104   1.0306   0.4652   0.0000   0.0000   0.0000   0.0000
     0.0000   0.0000   0.0000

          k = 0.0000-0.4330 0.1146 (  3216 PWs)   bands (ev):

   -90.3548 -53.6167 -53.5860 -53.5803 -48.1313 -20.2261 -20.0290 -19.9653
   -12.9881 -12.2856  -0.8108   0.2170   0.7430   1.3021   2.2659   3.0749
     4.1974   4.4495   4.6844   6.4371   6.9767   7.4231  11.3312  12.1075
    15.1320  16.0197  17.2754

     occupation numbers 
     1.0000   1.0000   1.0000   1.0000   1.0000   1.0000   1.0000   1.0000
     1.0000   1.0000   1.0000   1.0000   1.0000   1.0000   1.0000   1.0000
     1.0000   1.0004   1.0140   0.0000   0.0000   0.0000   0.0000   0.0000
     0.0000   0.0000   0.0000

          k =-0.1250-0.3608 0.1146 (  3205 PWs)   bands (ev):

   -90.3553 -53.6079 -53.5869 -53.5817 -48.1350 -20.1803 -20.0381 -19.9704
   -13.1649 -12.2523  -0.4148   0.1165   0.7306   1.1881   1.9022   3.3761
     4.3054   4.5850   4.8405   5.9938   6.7341   7.1721  10.7819  13.6127
    14.8304  16.8138  17.8206

     occupation numbers 
     1.0000   1.0000   1.0000   1.0000   1.0000   1.0000   1.0000   1.0000
     1.0000   1.0000   1.0000   1.0000   1.0000   1.0000   1.0000   1.0000
     1.0000   1.0038   1.0564   0.0000   0.0000   0.0000   0.0000   0.0000
     0.0000   0.0000   0.0000

          k =-0.1250-0.5052 0.1146 (  3217 PWs)   bands (ev):

   -90.3540 -53.6204 -53.5867 -53.5848 -48.1261 -20.2446 -20.0625 -19.9582
   -12.7493 -12.3142  -0.9067   0.1192   0.9327   1.5053   1.8310   2.8033
     4.0720   4.3720   4.8100   6.8148   7.1861   8.0396  10.8142  12.5452
    14.8653  15.6497  17.3053

     occupation numbers 
     1.0000   1.0000   1.0000   1.0000   1.0000   1.0000   1.0000   1.0000
     1.0000   1.0000   1.0000   1.0000   1.0000   1.0000   1.0000   1.0000
     1.0000   1.0001   1.0460   0.0000   0.0000   0.0000   0.0000   0.0000
     0.0000   0.0000   0.0000

 ------ SPIN DOWN ----------


          k = 0.0000 0.0000 0.0000 (  3231 PWs)   bands (ev):

   -89.8080 -53.0737 -53.0737 -52.9717 -48.1633 -20.0083 -19.9761 -19.9761
   -14.0567 -12.1393  -0.3160   0.3383   0.3383   2.8076   3.6405   3.8128
     3.8128   4.2693   4.2693   5.7335   7.8464   7.8464   8.8322  11.8474
    14.9774  16.6284  20.3875

     occupation numbers 
     1.0000   1.0000   1.0000   1.0000   1.0000   1.0000   1.0000   1.0000
     1.0000   1.0000   1.0000   1.0000   1.0000   1.0000   1.0000   1.0000
     1.0000   1.0000   1.0000   0.0050   0.0000   0.0000   0.0000   0.0000
     0.0000   0.0000   0.0000

          k = 0.0000 0.0000 0.1146 (  3237 PWs)   bands (ev):

   -89.8080 -53.0737 -53.0737 -52.9717 -48.1633 -20.0084 -19.9761 -19.9761
   -14.0565 -12.1396  -0.2859   0.3383   0.3383   2.4769   3.8126   3.8126
     4.1133   4.2693   4.2693   5.6595   7.8465   7.8465   8.4561  12.6645
    14.2988  16.6119  20.4900

     occupation numbers 
     1.0000   1.0000   1.0000   1.0000   1.0000   1.0000   1.0000   1.0000
     1.0000   1.0000   1.0000   1.0000   1.0000   1.0000   1.0000   1.0000
     1.0000   1.0000   1.0000   0.0154   0.0000   0.0000   0.0000   0.0000
     0.0000   0.0000   0.0000

          k = 0.0000 0.1443 0.0000 (  3229 PWs)   bands (ev):

   -89.8073 -53.0821 -53.0757 -52.9704 -48.1581 -20.0202 -20.0011 -19.9855
   -13.8864 -12.1391  -0.1616   0.1845   0.4427   2.7310   3.2303   3.2323
     3.9744   4.5972   4.7659   5.7771   7.3500   7.7413   9.1830  12.4289
    15.5782  16.8989  19.1992

     occupation numbers 
     1.0000   1.0000   1.0000   1.0000   1.0000   1.0000   1.0000   1.0000
     1.0000   1.0000   1.0000   1.0000   1.0000   1.0000   1.0000   1.0000
     1.0000   1.0046   1.0322   0.0024   0.0000   0.0000   0.0000   0.0000
     0.0000   0.0000   0.0000

          k = 0.0000 0.1443 0.1146 (  3219 PWs)   bands (ev):

   -89.8073 -53.0821 -53.0757 -52.9704 -48.1581 -20.0202 -20.0010 -19.9855
   -13.8863 -12.1393  -0.1448   0.1876   0.4427   2.7388   2.9472   3.2303
     4.3260   4.6483   4.7658   5.6854   7.4149   7.7412   8.8405  13.1568
    14.7925  17.1436  19.1906

     occupation numbers 
     1.0000   1.0000   1.0000   1.0000   1.0000   1.0000   1.0000   1.0000
     1.0000   1.0000   1.0000   1.0000   1.0000   1.0000   1.0000   1.0000
     1.0000   1.0091   1.0322   0.0106   0.0000   0.0000   0.0000   0.0000
     0.0000   0.0000   0.0000

          k = 0.0000 0.2887 0.0000 (  3212 PWs)   bands (ev):

   -89.8054 -53.1025 -53.0805 -52.9674 -48.1455 -20.1253 -20.0081 -19.9837
   -13.4412 -12.1503  -0.2330   0.4076   0.6899   1.4068   2.6308   3.6858
     4.6707   4.9068   5.0642   5.6801   6.8102   7.6068   9.9995  13.7342
    15.3817  16.8083  17.5736

     occupation numbers 
     1.0000   1.0000   1.0000   1.0000   1.0000   1.0000   1.0000   1.0000
     1.0000   1.0000   1.0000   1.0000   1.0000   1.0000   1.0000   1.0000
     1.0119   1.0770   1.0306   0.0114   0.0000   0.0000   0.0000   0.0000
     0.0000   0.0000   0.0000

          k = 0.0000 0.2887 0.1146 (  3212 PWs)   bands (ev):

   -89.8054 -53.1024 -53.0806 -52.9674 -48.1455 -20.1252 -20.0082 -19.9837
   -13.4411 -12.1504  -0.2388   0.4183   0.6899   1.4185   2.6308   3.6113
     4.6142   5.0642   5.0827   5.5584   6.9654   7.6068   9.7791  14.1991
    15.3541  15.9850  18.4273

     occupation numbers 
     1.0000   1.0000   1.0000   1.0000   1.0000   1.0000   1.0000   1.0000
     1.0000   1.0000   1.0000   1.0000   1.0000   1.0000   1.0000   1.0000
     1.0058   1.0306   1.0086   0.0571   0.0000   0.0000   0.0000   0.0000
     0.0000   0.0000   0.0000

          k = 0.0000 0.4330 0.0000 (  3198 PWs)   bands (ev):

   -89.8036 -53.1228 -53.0854 -52.9643 -48.1329 -20.2285 -20.0308 -19.9662
   -12.9163 -12.2004  -0.6918   0.3099   0.8897   1.5069   2.3684   3.2206
     4.7181   4.9294   5.2334   6.5266   7.1758   7.6405  11.2452  12.1221
    15.2780  15.9943  17.5963

     occupation numbers 
     1.0000   1.0000   1.0000   1.0000   1.0000   1.0000   1.0000   1.0000
     1.0000   1.0000   1.0000   1.0000   1.0000   1.0000   1.0000   1.0000
     1.0203   1.0814   0.6883   0.0000   0.0000   0.0000   0.0000   0.0000
     0.0000   0.0000   0.0000

          k = 0.0000 0.4330 0.1146 (  3216 PWs)   bands (ev):

   -89.8036 -53.1228 -53.0855 -52.9643 -48.1329 -20.2286 -20.0310 -19.9662
   -12.9163 -12.2005  -0.6926   0.3079   0.8897   1.5140   2.3683   3.2249
     4.7124   4.9294   5.2397   6.3808   7.3504   7.6404  11.1893  12.0650
    15.4363  16.2334  17.0295

     occupation numbers 
     1.0000   1.0000   1.0000   1.0000   1.0000   1.0000   1.0000   1.0000
     1.0000   1.0000   1.0000   1.0000   1.0000   1.0000   1.0000   1.0000
     1.0191   1.0814   0.6713   0.0000   0.0000   0.0000   0.0000   0.0000
     0.0000   0.0000   0.0000

          k = 0.0000-0.5774 0.0000 (  3214 PWs)   bands (ev):

   -89.8029 -53.1312 -53.0875 -52.9631 -48.1277 -20.2708 -20.0404 -19.9590
   -12.6321 -12.2727  -1.0836   0.4517   0.9358   1.7102   2.3587   2.9136
     4.5923   4.7804   5.1312   7.1548   7.6911   8.5056   9.7875  12.9898
    13.6065  16.5393  17.1774

     occupation numbers 
     1.0000   1.0000   1.0000   1.0000   1.0000   1.0000   1.0000   1.0000
     1.0000   1.0000   1.0000   1.0000   1.0000   1.0000   1.0000   1.0000
     1.0043   1.0365   0.9311   0.0000   0.0000   0.0000   0.0000   0.0000
     0.0000   0.0000   0.0000

          k = 0.0000-0.5774 0.1146 (  3216 PWs)   bands (ev):

   -89.8029 -53.1313 -53.0875 -52.9630 -48.1277 -20.2710 -20.0404 -19.9589
   -12.6321 -12.2727  -1.0837   0.4500   0.9358   1.7113   2.3587   2.9192
     4.5909   4.7804   5.1301   7.1425   7.6912   8.5218   9.7491  12.9787
    13.8062  16.1782  17.1972

     occupation numbers 
     1.0000   1.0000   1.0000   1.0000   1.0000   1.0000   1.0000   1.0000
     1.0000   1.0000   1.0000   1.0000   1.0000   1.0000   1.0000   1.0000
     1.0042   1.0365   0.9331   0.0000   0.0000   0.0000   0.0000   0.0000
     0.0000   0.0000   0.0000

          k = 0.1250 0.2165 0.0000 (  3225 PWs)   bands (ev):

   -89.8060 -53.0956 -53.0802 -52.9683 -48.1492 -20.0899 -20.0067 -19.9888
   -13.5785 -12.1439  -0.1521   0.3256   0.5809   1.8542   2.5079   3.6868
     4.5466   4.7328   5.1073   5.7211   6.9477   7.4985   9.7477  13.3799
    16.2791  16.8547  17.3842

     occupation numbers 
     1.0000   1.0000   1.0000   1.0000   1.0000   1.0000   1.0000   1.0000
     1.0000   1.0000   1.0000   1.0000   1.0000   1.0000   1.0000   1.0000
     1.0021   1.0236   0.9729   0.0061   0.0000   0.0000   0.0000   0.0000
     0.0000   0.0000   0.0000

          k = 0.1250 0.2165 0.1146 (  3212 PWs)   bands (ev):

   -89.8060 -53.0956 -53.0801 -52.9682 -48.1492 -20.0898 -20.0065 -19.9887
   -13.5783 -12.1440  -0.1566   0.3391   0.5819   1.8648   2.5077   3.5280
     4.6827   4.7423   5.1939   5.6353   7.0403   7.4631   9.5593  13.8428
    15.6485  16.6561  18.0947

     occupation numbers 
     1.0000   1.0000   1.0000   1.0000   1.0000   1.0000   1.0000   1.0000
     1.0000   1.0000   1.0000   1.0000   1.0000   1.0000   1.0000   1.0000
     1.0137   1.0259   0.7919   0.0216   0.0000   0.0000   0.0000   0.0000
     0.0000   0.0000   0.0000

          k = 0.1250 0.3608 0.0000 (  3216 PWs)   bands (ev):

   -89.8041 -53.1139 -53.0870 -52.9652 -48.1366 -20.1829 -20.0403 -19.9714
   -13.0930 -12.1681  -0.2843   0.2296   0.8761   1.3668   2.0418   3.5245
     4.7969   5.1379   5.3129   5.9968   6.9698   7.4015  10.7798  13.6309
    14.8020  17.0342  17.6154

     occupation numbers 
     1.0000   1.0000   1.0000   1.0000   1.0000   1.0000   1.0000   1.0000
     1.0000   1.0000   1.0000   1.0000   1.0000   1.0000   1.0000   1.0000
     1.0417   0.9180   0.4705   0.0000   0.0000   0.0000   0.0000   0.0000
     0.0000   0.0000   0.0000

          k = 0.1250 0.3608 0.1146 (  3205 PWs)   bands (ev):

   -89.8041 -53.1138 -53.0870 -52.9652 -48.1366 -20.1827 -20.0402 -19.9713
   -13.0930 -12.1681  -0.2874   0.2293   0.8775   1.3774   2.0421   3.5174
     4.7939   5.1206   5.3236   5.9267   7.1362   7.3456  10.7097  13.6158
    14.9655  16.6807  17.8974

     occupation numbers 
     1.0000   1.0000   1.0000   1.0000   1.0000   1.0000   1.0000   1.0000
     1.0000   1.0000   1.0000   1.0000   1.0000   1.0000   1.0000   1.0000
     1.0407   0.9504   0.4421   0.0001   0.0000   0.0000   0.0000   0.0000
     0.0000   0.0000   0.0000

          k = 0.1250 0.5052 0.0000 (  3220 PWs)   bands (ev):

   -89.8029 -53.1267 -53.0921 -52.9631 -48.1277 -20.2472 -20.0646 -19.9591
   -12.6789 -12.2265  -0.7983   0.2169   1.0619   1.6826   1.9466   2.9380
     4.7273   4.8784   5.2564   7.0612   7.4002   8.0891  10.8075  12.4426
    14.8070  15.9002  17.1334

     occupation numbers 
     1.0000   1.0000   1.0000   1.0000   1.0000   1.0000   1.0000   1.0000
     1.0000   1.0000   1.0000   1.0000   1.0000   1.0000   1.0000   1.0000
     1.0223   1.0691   0.6254   0.0000   0.0000   0.0000   0.0000   0.0000
     0.0000   0.0000   0.0000

          k = 0.1250 0.5052 0.1146 (  3217 PWs)   bands (ev):

   -89.8029 -53.1267 -53.0921 -52.9631 -48.1277 -20.2471 -20.0646 -19.9591
   -12.6789 -12.2265  -0.7983   0.2158   1.0614   1.6846   1.9466   2.9421
     4.7262   4.8791   5.2538   7.0282   7.4253   8.0968  10.7880  12.4333
    14.9454  15.8341  17.2794

     occupation numbers 
     1.0000   1.0000   1.0000   1.0000   1.0000   1.0000   1.0000   1.0000
     1.0000   1.0000   1.0000   1.0000   1.0000   1.0000   1.0000   1.0000
     1.0220   1.0693   0.6324   0.0000   0.0000   0.0000   0.0000   0.0000
     0.0000   0.0000   0.0000

          k = 0.2500 0.4330 0.0000 (  3215 PWs)   bands (ev):

   -89.8029 -53.1203 -53.0984 -52.9631 -48.1277 -20.2139 -20.0981 -19.9592
   -12.7176 -12.1884  -0.2896  -0.0291   0.8263   1.5399   1.8428   2.9828
     4.8238   4.9493   5.4072   6.9342   7.1367   7.8720  11.8523  12.3096
    14.6543  16.6497  17.0741

     occupation numbers 
     1.0000   1.0000   1.0000   1.0000   1.0000   1.0000   1.0000   1.0000
     1.0000   1.0000   1.0000   1.0000   1.0000   1.0000   1.0000   1.0000
     1.0507   1.0832   0.2488   0.0000   0.0000   0.0000   0.0000   0.0000
     0.0000   0.0000   0.0000

          k = 0.2500 0.4330 0.1146 (  3206 PWs)   bands (ev):

   -89.8029 -53.1203 -53.0983 -52.9631 -48.1277 -20.2139 -20.0980 -19.9591
   -12.7176 -12.1884  -0.2899  -0.0302   0.8266   1.5413   1.8455   2.9825
     4.8241   4.9508   5.3975   6.9777   7.1218   7.8290  11.8911  12.3223
    14.5962  16.6402  17.0901

     occupation numbers 
     1.0000   1.0000   1.0000   1.0000   1.0000   1.0000   1.0000   1.0000
     1.0000   1.0000   1.0000   1.0000   1.0000   1.0000   1.0000   1.0000
     1.0508   1.0833   0.2682   0.0000   0.0000   0.0000   0.0000   0.0000
     0.0000   0.0000   0.0000

          k = 0.2500 0.5774 0.0000 (  3210 PWs)   bands (ev):

   -89.8023 -53.1208 -53.1053 -52.9622 -48.1240 -20.2150 -20.1337 -19.9540
   -12.5536 -12.1966  -0.4142   0.0335   0.6369   1.6727   2.0576   2.5297
     4.6066   5.1229   5.3528   7.1003   7.1233   9.3881  10.3754  13.7497
    14.0429  14.7391  16.7365

     occupation numbers 
     1.0000   1.0000   1.0000   1.0000   1.0000   1.0000   1.0000   1.0000
     1.0000   1.0000   1.0000   1.0000   1.0000   1.0000   1.0000   1.0000
     1.0052   0.9463   0.3684   0.0000   0.0000   0.0000   0.0000   0.0000
     0.0000   0.0000   0.0000

          k = 0.2500 0.5774 0.1146 (  3215 PWs)   bands (ev):

   -89.8023 -53.1208 -53.1053 -52.9622 -48.1240 -20.2152 -20.1337 -19.9541
   -12.5536 -12.1966  -0.4143   0.0332   0.6372   1.6727   2.0573   2.5304
     4.6066   5.1232   5.3508   7.1106   7.1298   9.3547  10.3502  13.7564
    14.0934  14.8242  16.7641

     occupation numbers 
     1.0000   1.0000   1.0000   1.0000   1.0000   1.0000   1.0000   1.0000
     1.0000   1.0000   1.0000   1.0000   1.0000   1.0000   1.0000   1.0000
     1.0052   0.9458   0.3734   0.0000   0.0000   0.0000   0.0000   0.0000
     0.0000   0.0000   0.0000

          k = 0.0000-0.1443 0.1146 (  3219 PWs)   bands (ev):

   -89.8073 -53.0821 -53.0757 -52.9704 -48.1581 -20.0202 -20.0010 -19.9855
   -13.8863 -12.1394  -0.1436   0.1864   0.4426   2.7009   2.9945   3.2303
     4.2998   4.6671   4.7658   5.6965   7.3633   7.7414   8.8963  13.1021
    14.8338  17.1533  19.1481

     occupation numbers 
     1.0000   1.0000   1.0000   1.0000   1.0000   1.0000   1.0000   1.0000
     1.0000   1.0000   1.0000   1.0000   1.0000   1.0000   1.0000   1.0000
     1.0000   1.0114   1.0322   0.0090   0.0000   0.0000   0.0000   0.0000
     0.0000   0.0000   0.0000

          k = 0.0000-0.2887 0.1146 (  3212 PWs)   bands (ev):

   -89.8054 -53.1024 -53.0806 -52.9674 -48.1455 -20.1252 -20.0082 -19.9837
   -13.4411 -12.1504  -0.2370   0.4148   0.6899   1.4207   2.6308   3.5957
     4.6216   5.0642   5.0763   5.6649   6.8035   7.6068   9.9179  13.9396
    15.4871  16.1047  18.3153

     occupation numbers 
     1.0000   1.0000   1.0000   1.0000   1.0000   1.0000   1.0000   1.0000
     1.0000   1.0000   1.0000   1.0000   1.0000   1.0000   1.0000   1.0000
     1.0064   1.0306   1.0167   0.0143   0.0000   0.0000   0.0000   0.0000
     0.0000   0.0000   0.0000

          k = 0.0000-0.4330 0.1146 (  3216 PWs)   bands (ev):

   -89.8036 -53.1228 -53.0855 -52.9643 -48.1329 -20.2286 -20.0310 -19.9662
   -12.9163 -12.2005  -0.6930   0.3077   0.8897   1.5171   2.3683   3.2163
     4.7151   4.9294   5.2245   6.5564   7.1372   7.6404  11.3367  12.0900
    15.1562  16.0354  17.3675

     occupation numbers 
     1.0000   1.0000   1.0000   1.0000   1.0000   1.0000   1.0000   1.0000
     1.0000   1.0000   1.0000   1.0000   1.0000   1.0000   1.0000   1.0000
     1.0197   1.0814   0.7125   0.0000   0.0000   0.0000   0.0000   0.0000
     0.0000   0.0000   0.0000

          k =-0.1250-0.3608 0.1146 (  3205 PWs)   bands (ev):

   -89.8041 -53.1138 -53.0870 -52.9652 -48.1366 -20.1827 -20.0402 -19.9713
   -13.0930 -12.1681  -0.2873   0.2288   0.8765   1.3805   2.0417   3.5099
     4.7989   5.1352   5.2751   6.0485   6.9733   7.3893  10.7931  13.5923
    14.8533  16.8868  17.8425

     occupation numbers 
     1.0000   1.0000   1.0000   1.0000   1.0000   1.0000   1.0000   1.0000
     1.0000   1.0000   1.0000   1.0000   1.0000   1.0000   1.0000   1.0000
     1.0423   0.9235   0.5734   0.0000   0.0000   0.0000   0.0000   0.0000
     0.0000   0.0000   0.0000

          k =-0.1250-0.5052 0.1146 (  3217 PWs)   bands (ev):

   -89.8029 -53.1267 -53.0921 -52.9631 -48.1277 -20.2471 -20.0646 -19.9591
   -12.6789 -12.2265  -0.7985   0.2159   1.0615   1.6850   1.9476   2.9394
     4.7272   4.8788   5.2513   7.0826   7.4054   8.0402  10.7940  12.5493
    14.8691  15.6644  17.3444

     occupation numbers 
     1.0000   1.0000   1.0000   1.0000   1.0000   1.0000   1.0000   1.0000
     1.0000   1.0000   1.0000   1.0000   1.0000   1.0000   1.0000   1.0000
     1.0223   1.0692   0.6395   0.0000   0.0000   0.0000   0.0000   0.0000
     0.0000   0.0000   0.0000

     the Fermi energy is     5.3398 ev

!    total energy              =    -569.22223950 Ry
     total all-electron energy =     -3412.712795 Ry
     estimated scf accuracy    <       0.00000004 Ry
     smearing contrib. (-TS)   =       0.00308270 Ry
     internal energy E=F+TS    =    -569.22532219 Ry

     The total energy is F=E-TS. E is the sum of the following terms:
     one-electron contribution =    -574.30945808 Ry
     hartree contribution      =     301.69584670 Ry
     xc contribution           =     -60.04114395 Ry
     ewald contribution        =    -114.62272573 Ry
     one-center paw contrib.   =    -121.94784114 Ry
      -> PAW hartree energy AE =     343.03311035 Ry
      -> PAW hartree energy PS =    -343.03031115 Ry
      -> PAW xc energy AE      =    -178.95712517 Ry
      -> PAW xc energy PS      =      57.00648483 Ry
      -> total E_H with PAW    =     301.69864590 Ry
      -> total E_XC with PAW   =    -181.99178428 Ry

     total magnetization       =     0.57 Bohr mag/cell
     absolute magnetization    =     0.60 Bohr mag/cell

     convergence has been achieved in  20 iterations

     Forces acting on atoms (cartesian axes, Ry/au):

     atom    1 type  1   force =     0.00000000    0.00000000    0.02945973
     atom    2 type  2   force =     0.00000000    0.00000000   -0.02962659
     atom    3 type  2   force =     0.00000000    0.00000000   -0.02168263
     atom    4 type  3   force =     0.00000000    0.00000000    0.02184949
     The non-local contrib.  to forces
     atom    1 type  1   force =     0.00000000    0.00000000    0.02401740
     atom    2 type  2   force =     0.00000000    0.00000000   -1.20175863
     atom    3 type  2   force =     0.00000000    0.00000000    0.77736852
     atom    4 type  3   force =     0.00000000    0.00000000   -0.00854681
     The ionic contribution  to forces
     atom    1 type  1   force =    -0.00000000   -0.00000000   13.38575043
     atom    2 type  2   force =     0.00000000   -0.00000000   35.86979952
     atom    3 type  2   force =    -0.00000000    0.00000000  -26.62066395
     atom    4 type  3   force =     0.00000000   -0.00000000  -22.63488601
     The local contribution  to forces
     atom    1 type  1   force =    -0.00000000    0.00000000  -13.38004912
     atom    2 type  2   force =     0.00000001   -0.00000001  -34.70838474
     atom    3 type  2   force =    -0.00000001    0.00000001   25.82805611
     atom    4 type  3   force =    -0.00000000   -0.00000000   22.66572368
     The core correction contribution to forces
     atom    1 type  1   force =     0.00000000   -0.00000000   -0.00033435
     atom    2 type  2   force =    -0.00000000    0.00000000    0.01065745
     atom    3 type  2   force =     0.00000000   -0.00000000   -0.00649492
     atom    4 type  3   force =     0.00000000   -0.00000000   -0.00003503
     The Hubbard contrib.    to forces
     atom    1 type  1   force =     0.00000000    0.00000000    0.00000000
     atom    2 type  2   force =     0.00000000    0.00000000    0.00000000
     atom    3 type  2   force =     0.00000000    0.00000000    0.00000000
     atom    4 type  3   force =     0.00000000    0.00000000    0.00000000
     The SCF correction term to forces
     atom    1 type  1   force =     0.00000000   -0.00000000    0.00005398
     atom    2 type  2   force =     0.00000000   -0.00000000    0.00003842
     atom    3 type  2   force =    -0.00000000    0.00000000    0.00003022
     atom    4 type  3   force =     0.00000000   -0.00000000   -0.00042774

     Total force =     0.051896     Total SCF correction =     0.000434

     Writing all to output data dir ./out/pw.save/ :
     XML data file, charge density, pseudopotentials, collected wavefunctions
 
     init_run     :     13.56s CPU      3.51s WALL (       1 calls)
     electrons    :    107.65s CPU     27.75s WALL (       1 calls)
     forces       :      0.56s CPU      0.54s WALL (       1 calls)

     Called by init_run:
     wfcinit      :      0.27s CPU      0.33s WALL (       1 calls)
     wfcinit:atom :      0.04s CPU      0.04s WALL (      50 calls)
     wfcinit:wfcr :      0.16s CPU      0.20s WALL (      50 calls)
     potinit      :     12.68s CPU      2.44s WALL (       1 calls)
     hinit0       :      0.52s CPU      0.52s WALL (       1 calls)

     Called by electrons:
     c_bands      :     13.34s CPU     13.26s WALL (      20 calls)
     sum_band     :      2.24s CPU      2.20s WALL (      20 calls)
     v_of_rho     :      0.35s CPU      0.22s WALL (      21 calls)
     v_h          :      0.23s CPU      0.04s WALL (      21 calls)
     v_xc         :      0.12s CPU      0.19s WALL (      22 calls)
     newd         :      0.49s CPU      0.48s WALL (      21 calls)
                                        0.47s GPU  (      21 calls)
     PAW_pot      :     94.41s CPU     11.63s WALL (      21 calls)
     mix_rho      :      0.66s CPU      0.61s WALL (      20 calls)

     Called by c_bands:
     init_us_2    :      0.86s CPU      0.80s WALL (    2100 calls)
     cegterg      :     11.64s CPU     11.66s WALL (    1000 calls)

     Called by sum_band:
     sum_band:wei :      0.03s CPU      0.03s WALL (      20 calls)
                                        0.03s GPU  (      20 calls)
     sum_band:loo :      1.42s CPU      1.36s WALL (      20 calls)
                                        1.36s GPU  (      20 calls)
     sum_band:buf :      0.18s CPU      0.20s WALL (    1000 calls)
                                        0.19s GPU  (    1000 calls)
     sum_band:ini :      0.40s CPU      0.39s WALL (    1000 calls)
                                        0.38s GPU  (    1000 calls)
     sum_band:cal :      0.04s CPU      0.06s WALL (    1000 calls)
                                        0.05s GPU  (    1000 calls)
     sum_band:bec :      0.21s CPU      0.24s WALL (    1000 calls)
                                        0.23s GPU  (    1000 calls)
     addusdens    :      0.66s CPU      0.67s WALL (      20 calls)
                                        0.67s GPU  (      20 calls)
     addusd:skk   :      0.00s CPU      0.00s WALL (      60 calls)
                                        0.00s GPU  (      60 calls)

     Called by *egterg:
     cdiaghg      :      4.00s CPU      4.15s WALL (    4656 calls)
                                        4.09s GPU  (    4656 calls)
     cegterg:over :      0.96s CPU      0.99s WALL (    3656 calls)
     cegterg:upda :      0.71s CPU      0.71s WALL (    3656 calls)
     cegterg:last :      0.13s CPU      0.13s WALL (    2029 calls)
     h_psi        :      4.25s CPU      4.25s WALL (    4706 calls)
                                        4.19s GPU  (    4706 calls)
     s_psi        :      0.70s CPU      0.74s WALL (    4706 calls)
     g_psi        :      0.02s CPU      0.09s WALL (    3656 calls)
                                        0.04s GPU  (    3656 calls)

     Called by h_psi:
     h_psi:calbec :      0.15s CPU      0.27s WALL (    4706 calls)
                                        0.21s GPU  (    4706 calls)
     vloc_psi     :      2.97s CPU      2.89s WALL (    4706 calls)
                                        2.83s GPU  (    4706 calls)
     add_vuspsi   :      0.64s CPU      0.76s WALL (    4706 calls)
                                        0.70s GPU  (    4706 calls)

     General routines
     calbec       :      0.16s CPU      0.19s WALL (    5906 calls)
     fft          :      4.00s CPU      0.99s WALL (     538 calls)
                                        0.02s GPU  (     496 calls)
     ffts         :      4.56s CPU      0.83s WALL (     807 calls)
                                        0.02s GPU  (     765 calls)
     fftw         :      0.27s CPU      1.01s WALL (   15546 calls)
                                        0.83s GPU  (   15546 calls)
     interpolate  :      8.71s CPU      1.80s WALL (      42 calls)
 
     Parallel routines

     PAW routines
     PAW_pot      :     94.41s CPU     11.63s WALL (      21 calls)
     PAW_symme    :      0.02s CPU      0.00s WALL (      41 calls)
 
     PWSCF        :   2m 2.67s CPU     32.33s WALL

 
   This run was terminated on:   3:52: 5  12Jul2026            

=------------------------------------------------------------------------------=
   JOB DONE.
=------------------------------------------------------------------------------=
Warning: ieee_divide_by_zero is signaling
Warning: ieee_inexact is signaling
FORTRAN STOP
