
     Program PWSCF v.7.3.1 starts on 12Jul2026 at  7:13:38 

     This program is part of the open-source Quantum ESPRESSO suite
     for quantum simulation of materials; please cite
         "P. Giannozzi et al., J. Phys.:Condens. Matter 21 395502 (2009);
         "P. Giannozzi et al., J. Phys.:Condens. Matter 29 465901 (2017);
         "P. Giannozzi et al., J. Chem. Phys. 152 154105 (2020);
          URL http://www.quantum-espresso.org", 
     in publications or presentations arising from this work. More details at
     http://www.quantum-espresso.org/quote

     Parallel version (MPI & OpenMP), running on      14 processor cores
     Number of MPI processes:                 1
     Threads/MPI process:                    14

     MPI processes distributed on     1 nodes
     699802 MiB available memory on the printing compute node when the environment starts
 
     Reading input from pw.in

     Current dimensions of program PWSCF are:
     Max number of different atomic species (ntypx) = 10
     Max number of k-points (npk) =  40000
     Max angular momentum in pseudopotentials (lmaxx) =  4
     file Co.pbe-spn-kjpaw_psl.0.3.1.UPF: wavefunction(s)  3P 3D renormalized
     file O.pbe-n-kjpaw_psl.1.0.0.UPF: wavefunction(s)  2S 2P renormalized
     file Na.pbe-spn-kjpaw_psl.1.0.0.UPF: wavefunction(s)  2P renormalized
 
     Subspace diagonalization in iterative solution of the eigenvalue problem:
     a serial algorithm will be used

 
     G-vector sticks info
     --------------------
     sticks:   dense  smooth     PW     G-vecs:    dense   smooth      PW
     Sum        2941    1483    421               256907    90927   13645
 
     Using Slab Decomposition
 


     bravais-lattice index     =            4
     lattice parameter (alat)  =       9.4527  a.u.
     unit-cell volume          =    1447.6983 (a.u.)^3
     number of atoms/cell      =           10
     number of atomic types    =            3
     number of electrons       =        96.00
     number of Kohn-Sham states=           64
     kinetic-energy cutoff     =      60.0000  Ry
     charge density cutoff     =     480.0000  Ry
     scf convergence threshold =      1.0E-07
     mixing beta               =       0.3000
     number of iterations used =            8  local-TF  mixing
     Exchange-correlation= SLA  PW   PBX  PBC
                           (   1   4   3   4   0   0   0)

     GPU acceleration is ACTIVE.  1 visible GPUs per MPI rank
     GPU-aware MPI enabled


     GPU used by master process:

        Device Number: 0
        Device name: NVIDIA A100-SXM4-80GB
        Compute capability : 80
        Ratio of single to double precision performance  : 2
        Memory Clock Rate (KHz): 1593000
        Memory Bus Width (bits): 5120
        Peak Memory Bandwidth (GB/s): ******

     celldm(1)=   9.452718  celldm(2)=   0.000000  celldm(3)=   1.979144
     celldm(4)=   0.000000  celldm(5)=   0.000000  celldm(6)=   0.000000

     crystal axes: (cart. coord. in units of alat)
               a(1) = (   1.000000   0.000000   0.000000 )  
               a(2) = (  -0.500000   0.866025   0.000000 )  
               a(3) = (   0.000000   0.000000   1.979144 )  

     reciprocal axes: (cart. coord. in units 2 pi/alat)
               b(1) = (  1.000000  0.577350 -0.000000 )  
               b(2) = (  0.000000  1.154701  0.000000 )  
               b(3) = (  0.000000 -0.000000  0.505269 )  


     PseudoPot. # 1 for Co read from file:
     ../../pseudo/Co.pbe-spn-kjpaw_psl.0.3.1.UPF
     MD5 check sum: 3c0a43779828c046024e4f3be63f8e67
     Pseudo is Projector augmented-wave + core cor, Zval = 17.0
     Generated using &quot;atomic&quot; code by A. Dal Corso  v.6.2.2
     Shape of augmentation charge: PSQ
     Using radial grid of 1193 points,  6 beta functions with: 
                l(1) =   0
                l(2) =   0
                l(3) =   1
                l(4) =   1
                l(5) =   2
                l(6) =   2
     Q(r) pseudized with 0 coefficients 


     PseudoPot. # 2 for O  read from file:
     ../../pseudo/O.pbe-n-kjpaw_psl.1.0.0.UPF
     MD5 check sum: e99d9cef9b487d1ca56f5b95ecd0fd7a
     Pseudo is Projector augmented-wave + core cor, Zval =  6.0
     Generated using &quot;atomic&quot; code by A. Dal Corso  v.6.3
     Shape of augmentation charge: PSQ
     Using radial grid of 1095 points,  4 beta functions with: 
                l(1) =   0
                l(2) =   0
                l(3) =   1
                l(4) =   1
     Q(r) pseudized with 0 coefficients 


     PseudoPot. # 3 for Na read from file:
     ../../pseudo/Na.pbe-spn-kjpaw_psl.1.0.0.UPF
     MD5 check sum: 05b4deb74e3932c23ab016979dc8b5d4
     Pseudo is Projector augmented-wave + core cor, Zval =  9.0
     Generated using &quot;atomic&quot; code by A. Dal Corso  v.6.3
     Shape of augmentation charge: PSQ
     Using radial grid of 1121 points,  4 beta functions with: 
                l(1) =   0
                l(2) =   0
                l(3) =   1
                l(4) =   1
     Q(r) pseudized with 0 coefficients 


     atomic species   valence    mass     pseudopotential
     Co               17.00    58.93300     Co( 1.00)
     O                 6.00    15.99900     O ( 1.00)
     Na                9.00    22.98977     Na( 1.00)

     Starting magnetic structure 
     atomic species   magnetization
     Co              0.300
     O               0.000
     Na              0.000

      6 Sym. Ops. (no inversion) found


                                    s                        frac. trans.

      isym =  1     identity                                     

 cryst.   s( 1) = (     1          0          0      )
                  (     0          1          0      )
                  (     0          0          1      )

 cart.    s( 1) = (  1.0000000  0.0000000  0.0000000 )
                  (  0.0000000  1.0000000  0.0000000 )
                  (  0.0000000  0.0000000  1.0000000 )


      isym =  2     120 deg rotation - cryst. axis [0,0,1]       

 cryst.   s( 2) = (     0          1          0      )
                  (    -1         -1          0      )
                  (     0          0          1      )

 cart.    s( 2) = ( -0.5000000 -0.8660254  0.0000000 )
                  (  0.8660254 -0.5000000  0.0000000 )
                  (  0.0000000  0.0000000  1.0000000 )


      isym =  3     120 deg rotation - cryst. axis [0,0,-1]      

 cryst.   s( 3) = (    -1         -1          0      )
                  (     1          0          0      )
                  (     0          0          1      )

 cart.    s( 3) = ( -0.5000000  0.8660254  0.0000000 )
                  ( -0.8660254 -0.5000000  0.0000000 )
                  (  0.0000000  0.0000000  1.0000000 )


      isym =  4     inv. 180 deg rotation - cart. axis [0,1,0]   

 cryst.   s( 4) = (     1          0          0      )
                  (    -1         -1          0      )
                  (     0          0          1      )

 cart.    s( 4) = (  1.0000000  0.0000000  0.0000000 )
                  (  0.0000000 -1.0000000  0.0000000 )
                  (  0.0000000  0.0000000  1.0000000 )


      isym =  5     inv. 180 deg rotation - cryst. axis [1,-1,0] 

 cryst.   s( 5) = (     0          1          0      )
                  (     1          0          0      )
                  (     0          0          1      )

 cart.    s( 5) = ( -0.5000000  0.8660254  0.0000000 )
                  (  0.8660254  0.5000000  0.0000000 )
                  (  0.0000000  0.0000000  1.0000000 )


      isym =  6     inv. 180 deg rotation - cryst. axis [2,1,0]  

 cryst.   s( 6) = (    -1         -1          0      )
                  (     0          1          0      )
                  (     0          0          1      )

 cart.    s( 6) = ( -0.5000000 -0.8660254  0.0000000 )
                  ( -0.8660254  0.5000000  0.0000000 )
                  (  0.0000000  0.0000000  1.0000000 )


     point group C_3v (3m)  
     there are  3 classes
     the character table:

       E     2C3   3s_v 
A_1    1.00  1.00  1.00
A_2    1.00  1.00 -1.00
E      2.00 -1.00  0.00

     the symmetry operations in each class and the name of the first element:

     E        1
          identity                                               
     2C3      2    3
          120 deg rotation - cryst. axis [0,0,1]                 
     3s_v     4    6    5
          inv. 180 deg rotation - cart. axis [0,1,0]             

   Cartesian axes

     site n.     atom                  positions (alat units)
         1        Co     tau(   1) = (   0.0000000   0.0000000   0.0000000  )
         2        Co     tau(   2) = (  -0.0000000   0.5773503   0.0000000  )
         3        Co     tau(   3) = (   0.5000000   0.2886751   0.0000000  )
         4        O      tau(   4) = (   0.1666667   0.2886751   0.2039118  )
         5        O      tau(   5) = (   0.6666667   0.0000000   0.2039118  )
         6        O      tau(   6) = (  -0.3333333   0.5773503   0.2039118  )
         7        O      tau(   7) = (   0.3333333   0.0000000   1.7752321  )
         8        O      tau(   8) = (   0.3333333   0.5773503   1.7752321  )
         9        O      tau(   9) = (  -0.1666667   0.2886751   1.7752321  )
        10        Na     tau(  10) = (   0.0000000   0.0000000   1.1395071  )

   Crystallographic axes

     site n.     atom                  positions (cryst. coord.)
         1        Co     tau(   1) = (  0.0000000  0.0000000  0.0000000  )
         2        Co     tau(   2) = (  0.3333333  0.6666667  0.0000000  )
         3        Co     tau(   3) = (  0.6666667  0.3333333  0.0000000  )
         4        O      tau(   4) = (  0.3333333  0.3333333  0.1030303  )
         5        O      tau(   5) = (  0.6666667  0.0000000  0.1030303  )
         6        O      tau(   6) = (  0.0000000  0.6666667  0.1030303  )
         7        O      tau(   7) = (  0.3333333  0.0000000  0.8969697  )
         8        O      tau(   8) = (  0.6666667  0.6666667  0.8969697  )
         9        O      tau(   9) = ( -0.0000000  0.3333333  0.8969697  )
        10        Na     tau(  10) = (  0.0000000  0.0000000  0.5757576  )

     number of k points=    14  Marzari-Vanderbilt smearing, width (Ry)=  0.0200
                       cart. coord. in units 2pi/alat
        k(    1) = (   0.0000000   0.0000000   0.0000000), wk =   0.0138889
        k(    2) = (   0.0000000   0.0000000  -0.2526345), wk =   0.0138889
        k(    3) = (   0.0000000   0.1924501   0.0000000), wk =   0.0833333
        k(    4) = (   0.0000000   0.1924501  -0.2526345), wk =   0.0833333
        k(    5) = (   0.0000000   0.3849002   0.0000000), wk =   0.0833333
        k(    6) = (   0.0000000   0.3849002  -0.2526345), wk =   0.0833333
        k(    7) = (   0.0000000  -0.5773503   0.0000000), wk =   0.0416667
        k(    8) = (   0.0000000  -0.5773503  -0.2526345), wk =   0.0416667
        k(    9) = (   0.1666667   0.2886751   0.0000000), wk =   0.0833333
        k(   10) = (   0.1666667   0.2886751  -0.2526345), wk =   0.0833333
        k(   11) = (   0.1666667   0.4811252   0.0000000), wk =   0.1666667
        k(   12) = (   0.1666667   0.4811252  -0.2526345), wk =   0.1666667
        k(   13) = (   0.3333333   0.5773503   0.0000000), wk =   0.0277778
        k(   14) = (   0.3333333   0.5773503  -0.2526345), wk =   0.0277778

                       cryst. coord.
        k(    1) = (   0.0000000   0.0000000   0.0000000), wk =   0.0138889
        k(    2) = (   0.0000000   0.0000000  -0.5000000), wk =   0.0138889
        k(    3) = (   0.0000000   0.1666667   0.0000000), wk =   0.0833333
        k(    4) = (   0.0000000   0.1666667  -0.5000000), wk =   0.0833333
        k(    5) = (   0.0000000   0.3333333   0.0000000), wk =   0.0833333
        k(    6) = (   0.0000000   0.3333333  -0.5000000), wk =   0.0833333
        k(    7) = (   0.0000000  -0.5000000   0.0000000), wk =   0.0416667
        k(    8) = (   0.0000000  -0.5000000  -0.5000000), wk =   0.0416667
        k(    9) = (   0.1666667   0.1666667   0.0000000), wk =   0.0833333
        k(   10) = (   0.1666667   0.1666667  -0.5000000), wk =   0.0833333
        k(   11) = (   0.1666667   0.3333333   0.0000000), wk =   0.1666667
        k(   12) = (   0.1666667   0.3333333  -0.5000000), wk =   0.1666667
        k(   13) = (   0.3333333   0.3333333   0.0000000), wk =   0.0277778
        k(   14) = (   0.3333333   0.3333333  -0.5000000), wk =   0.0277778

     Dense  grid:   256907 G-vectors     FFT dimensions: (  72,  72, 135)

     Smooth grid:    90927 G-vectors     FFT dimensions: (  48,  48,  96)

     Dynamical RAM for                 wfc:      11.10 MB

     Dynamical RAM for     wfc (w. buffer):     321.78 MB

     Dynamical RAM for           str. fact:      11.76 MB

     Dynamical RAM for           local pot:       0.00 MB

     Dynamical RAM for          nlocal pot:      19.07 MB

     Dynamical RAM for                qrad:       5.27 MB

     Dynamical RAM for          rho,v,vnew:      55.56 MB

     Dynamical RAM for               rhoin:      18.52 MB

     Dynamical RAM for            rho*nmix:     125.44 MB

     Dynamical RAM for           G-vectors:      15.39 MB

     Dynamical RAM for          h,s,v(r/c):       0.75 MB

     Dynamical RAM for          <psi|beta>:       0.11 MB

     Dynamical RAM for                 psi:      22.19 MB

     Dynamical RAM for                hpsi:      22.19 MB

     Dynamical RAM for                spsi:      22.19 MB

     Dynamical RAM for      wfcinit/wfcrot:      22.29 MB

     Dynamical RAM for           addusdens:     756.58 MB

     Dynamical RAM for          addusforce:     795.83 MB

     Estimated static dynamical RAM per process >     495.07 MB

     Estimated max dynamical RAM per process >       1.38 GB

     Check: negative core charge=   -0.000006
     Generating pointlists ...
     new r_m :   0.1612 (alat units)  1.5237 (a.u.) for type    1
     new r_m :   0.1612 (alat units)  1.5237 (a.u.) for type    2
     new r_m :   0.2961 (alat units)  2.7989 (a.u.) for type    3

     Initial potential from superposition of free atoms

     starting charge      95.9928, renormalised to      96.0000
     Starting wfcs are   59 randomized atomic wfcs +    5 random wfcs
     Checking if some PAW data can be deallocated... 

     total cpu time spent up to now is        5.4 secs

     Self-consistent Calculation
[tb_dev] Currently allocated     9.94E-01 Mbytes, locked:    0 /   6
[tb_pin] Currently allocated     0.00E+00 Mbytes, locked:    0 /   0

     iteration #  1     ecut=    60.00 Ry     beta= 0.30
     Davidson diagonalization with overlap

---- Real-time Memory Report at c_bands before calling an iterative solver
          1078 MiB given to the printing process from OS
             0 MiB allocation reported by mallinfo(arena+hblkhd)
        699829 MiB available memory on the node where the printing process lives
     GPU memory used/free/total (MiB): 1998 / 79152 / 81151
------------------
     ethr =  1.00E-02,  avg # of iterations = 10.5

     total cpu time spent up to now is        9.0 secs

     total energy              =   -1488.22820807 Ry
     estimated scf accuracy    <       6.55255966 Ry

     total magnetization       =    14.00 Bohr mag/cell
     absolute magnetization    =    14.00 Bohr mag/cell
[tb_dev] Currently allocated     7.63E-05 Mbytes, locked:    0 /   2
[tb_pin] Currently allocated     0.00E+00 Mbytes, locked:    0 /   0

     iteration #  2     ecut=    60.00 Ry     beta= 0.30
     Davidson diagonalization with overlap

---- Real-time Memory Report at c_bands before calling an iterative solver
          1142 MiB given to the printing process from OS
             0 MiB allocation reported by mallinfo(arena+hblkhd)
        699784 MiB available memory on the node where the printing process lives
     GPU memory used/free/total (MiB): 2084 / 79066 / 81151
------------------
     ethr =  6.83E-03,  avg # of iterations =  1.9

     total cpu time spent up to now is       11.4 secs

     total energy              =   -1488.60732428 Ry
     estimated scf accuracy    <       1.06910124 Ry

     total magnetization       =    10.89 Bohr mag/cell
     absolute magnetization    =    10.89 Bohr mag/cell
[tb_dev] Currently allocated     7.63E-05 Mbytes, locked:    0 /   2
[tb_pin] Currently allocated     0.00E+00 Mbytes, locked:    0 /   0

     iteration #  3     ecut=    60.00 Ry     beta= 0.30
     Davidson diagonalization with overlap

---- Real-time Memory Report at c_bands before calling an iterative solver
          1156 MiB given to the printing process from OS
             0 MiB allocation reported by mallinfo(arena+hblkhd)
        699830 MiB available memory on the node where the printing process lives
     GPU memory used/free/total (MiB): 2084 / 79066 / 81151
------------------
     ethr =  1.11E-03,  avg # of iterations =  4.6

     total cpu time spent up to now is       14.3 secs

     total energy              =   -1488.97601340 Ry
     estimated scf accuracy    <       2.51356976 Ry

     total magnetization       =     4.50 Bohr mag/cell
     absolute magnetization    =     4.97 Bohr mag/cell
[tb_dev] Currently allocated     7.63E-05 Mbytes, locked:    0 /   2
[tb_pin] Currently allocated     0.00E+00 Mbytes, locked:    0 /   0

     iteration #  4     ecut=    60.00 Ry     beta= 0.30
     Davidson diagonalization with overlap

---- Real-time Memory Report at c_bands before calling an iterative solver
          1174 MiB given to the printing process from OS
             0 MiB allocation reported by mallinfo(arena+hblkhd)
        700636 MiB available memory on the node where the printing process lives
     GPU memory used/free/total (MiB): 2084 / 79066 / 81151
------------------
     ethr =  1.11E-03,  avg # of iterations =  1.8

     total cpu time spent up to now is       16.8 secs

     total energy              =   -1488.98599292 Ry
     estimated scf accuracy    <       2.81639843 Ry

     total magnetization       =     4.39 Bohr mag/cell
     absolute magnetization    =     4.90 Bohr mag/cell
[tb_dev] Currently allocated     7.63E-05 Mbytes, locked:    0 /   2
[tb_pin] Currently allocated     0.00E+00 Mbytes, locked:    0 /   0

     iteration #  5     ecut=    60.00 Ry     beta= 0.30
     Davidson diagonalization with overlap

---- Real-time Memory Report at c_bands before calling an iterative solver
          1188 MiB given to the printing process from OS
             0 MiB allocation reported by mallinfo(arena+hblkhd)
        700622 MiB available memory on the node where the printing process lives
     GPU memory used/free/total (MiB): 2084 / 79066 / 81151
------------------
     ethr =  1.11E-03,  avg # of iterations =  1.3

     total cpu time spent up to now is       19.1 secs

     total energy              =   -1488.69043113 Ry
     estimated scf accuracy    <       2.69084839 Ry

     total magnetization       =     4.66 Bohr mag/cell
     absolute magnetization    =     5.08 Bohr mag/cell
[tb_dev] Currently allocated     7.63E-05 Mbytes, locked:    0 /   2
[tb_pin] Currently allocated     0.00E+00 Mbytes, locked:    0 /   0

     iteration #  6     ecut=    60.00 Ry     beta= 0.30
     Davidson diagonalization with overlap

---- Real-time Memory Report at c_bands before calling an iterative solver
          1194 MiB given to the printing process from OS
             0 MiB allocation reported by mallinfo(arena+hblkhd)
        700617 MiB available memory on the node where the printing process lives
     GPU memory used/free/total (MiB): 2084 / 79066 / 81151
------------------
     ethr =  1.11E-03,  avg # of iterations =  1.3

     total cpu time spent up to now is       21.5 secs

     total energy              =   -1488.81127651 Ry
     estimated scf accuracy    <       0.76446577 Ry

     total magnetization       =    11.71 Bohr mag/cell
     absolute magnetization    =    11.71 Bohr mag/cell
[tb_dev] Currently allocated     7.63E-05 Mbytes, locked:    0 /   2
[tb_pin] Currently allocated     0.00E+00 Mbytes, locked:    0 /   0

     iteration #  7     ecut=    60.00 Ry     beta= 0.30
     Davidson diagonalization with overlap

---- Real-time Memory Report at c_bands before calling an iterative solver
          1199 MiB given to the printing process from OS
             0 MiB allocation reported by mallinfo(arena+hblkhd)
        700624 MiB available memory on the node where the printing process lives
     GPU memory used/free/total (MiB): 2084 / 79066 / 81151
------------------
     ethr =  7.96E-04,  avg # of iterations =  2.0

     total cpu time spent up to now is       24.0 secs

     total energy              =   -1489.23026609 Ry
     estimated scf accuracy    <       2.89799098 Ry

     total magnetization       =     4.63 Bohr mag/cell
     absolute magnetization    =     4.96 Bohr mag/cell
[tb_dev] Currently allocated     7.63E-05 Mbytes, locked:    0 /   2
[tb_pin] Currently allocated     0.00E+00 Mbytes, locked:    0 /   0

     iteration #  8     ecut=    60.00 Ry     beta= 0.30
     Davidson diagonalization with overlap

---- Real-time Memory Report at c_bands before calling an iterative solver
          1209 MiB given to the printing process from OS
             0 MiB allocation reported by mallinfo(arena+hblkhd)
        700611 MiB available memory on the node where the printing process lives
     GPU memory used/free/total (MiB): 2084 / 79066 / 81151
------------------
     ethr =  7.96E-04,  avg # of iterations =  2.0

     total cpu time spent up to now is       26.4 secs

     total energy              =   -1489.14134305 Ry
     estimated scf accuracy    <       6.82286308 Ry

     total magnetization       =     3.38 Bohr mag/cell
     absolute magnetization    =     3.79 Bohr mag/cell
[tb_dev] Currently allocated     7.63E-05 Mbytes, locked:    0 /   2
[tb_pin] Currently allocated     0.00E+00 Mbytes, locked:    0 /   0

     iteration #  9     ecut=    60.00 Ry     beta= 0.30
     Davidson diagonalization with overlap

---- Real-time Memory Report at c_bands before calling an iterative solver
          1217 MiB given to the printing process from OS
             0 MiB allocation reported by mallinfo(arena+hblkhd)
        700609 MiB available memory on the node where the printing process lives
     GPU memory used/free/total (MiB): 2084 / 79066 / 81151
------------------
     ethr =  7.96E-04,  avg # of iterations =  2.1

     negative rho (up, down):  0.000E+00 6.305E-03

     total cpu time spent up to now is       29.0 secs

     total energy              =   -1488.18032385 Ry
     estimated scf accuracy    <       4.78795096 Ry

     total magnetization       =     4.54 Bohr mag/cell
     absolute magnetization    =     4.98 Bohr mag/cell
[tb_dev] Currently allocated     7.63E-05 Mbytes, locked:    0 /   2
[tb_pin] Currently allocated     0.00E+00 Mbytes, locked:    0 /   0

     iteration # 10     ecut=    60.00 Ry     beta= 0.30
     Davidson diagonalization with overlap

---- Real-time Memory Report at c_bands before calling an iterative solver
          1222 MiB given to the printing process from OS
             0 MiB allocation reported by mallinfo(arena+hblkhd)
        700583 MiB available memory on the node where the printing process lives
     GPU memory used/free/total (MiB): 2084 / 79066 / 81151
------------------
     ethr =  7.96E-04,  avg # of iterations =  3.5

     negative rho (up, down):  1.853E-02 4.761E-01

     total cpu time spent up to now is       31.8 secs

     total energy              =   -1484.65037480 Ry
     estimated scf accuracy    <       1.71449138 Ry

     total magnetization       =    14.03 Bohr mag/cell
     absolute magnetization    =    14.24 Bohr mag/cell
[tb_dev] Currently allocated     7.63E-05 Mbytes, locked:    0 /   2
[tb_pin] Currently allocated     0.00E+00 Mbytes, locked:    0 /   0

     iteration # 11     ecut=    60.00 Ry     beta= 0.30
     Davidson diagonalization with overlap

---- Real-time Memory Report at c_bands before calling an iterative solver
          1224 MiB given to the printing process from OS
             0 MiB allocation reported by mallinfo(arena+hblkhd)
        700616 MiB available memory on the node where the printing process lives
     GPU memory used/free/total (MiB): 2084 / 79066 / 81151
------------------
     ethr =  7.96E-04,  avg # of iterations =  8.0

     negative rho (up, down):  5.237E-02 1.156E+00

     total cpu time spent up to now is       35.4 secs

     total energy              =   -1483.10699703 Ry
     estimated scf accuracy    <      14.67699454 Ry

     total magnetization       =    14.19 Bohr mag/cell
     absolute magnetization    =    17.09 Bohr mag/cell
[tb_dev] Currently allocated     7.63E-05 Mbytes, locked:    0 /   2
[tb_pin] Currently allocated     0.00E+00 Mbytes, locked:    0 /   0

     iteration # 12     ecut=    60.00 Ry     beta= 0.30
     Davidson diagonalization with overlap

---- Real-time Memory Report at c_bands before calling an iterative solver
          1224 MiB given to the printing process from OS
             0 MiB allocation reported by mallinfo(arena+hblkhd)
        700624 MiB available memory on the node where the printing process lives
     GPU memory used/free/total (MiB): 2084 / 79066 / 81151
------------------
     ethr =  7.96E-04,  avg # of iterations =  3.2

     total cpu time spent up to now is       38.2 secs

     total energy              =   -1486.63957953 Ry
     estimated scf accuracy    <      21.66351710 Ry

     total magnetization       =    15.05 Bohr mag/cell
     absolute magnetization    =    18.28 Bohr mag/cell
[tb_dev] Currently allocated     7.63E-05 Mbytes, locked:    0 /   2
[tb_pin] Currently allocated     0.00E+00 Mbytes, locked:    0 /   0

     iteration # 13     ecut=    60.00 Ry     beta= 0.30
     Davidson diagonalization with overlap

---- Real-time Memory Report at c_bands before calling an iterative solver
          1225 MiB given to the printing process from OS
             0 MiB allocation reported by mallinfo(arena+hblkhd)
        700632 MiB available memory on the node where the printing process lives
     GPU memory used/free/total (MiB): 2084 / 79066 / 81151
------------------
     ethr =  7.96E-04,  avg # of iterations =  6.2

     total cpu time spent up to now is       41.6 secs

     total energy              =   -1489.02839319 Ry
     estimated scf accuracy    <       0.64051301 Ry

     total magnetization       =     4.07 Bohr mag/cell
     absolute magnetization    =     5.04 Bohr mag/cell
[tb_dev] Currently allocated     7.63E-05 Mbytes, locked:    0 /   2
[tb_pin] Currently allocated     0.00E+00 Mbytes, locked:    0 /   0

     iteration # 14     ecut=    60.00 Ry     beta= 0.30
     Davidson diagonalization with overlap

---- Real-time Memory Report at c_bands before calling an iterative solver
          1225 MiB given to the printing process from OS
             0 MiB allocation reported by mallinfo(arena+hblkhd)
        700642 MiB available memory on the node where the printing process lives
     GPU memory used/free/total (MiB): 2084 / 79066 / 81151
------------------
     ethr =  6.67E-04,  avg # of iterations =  1.9

     total cpu time spent up to now is       44.1 secs

     total energy              =   -1488.94511993 Ry
     estimated scf accuracy    <       0.59236748 Ry

     total magnetization       =     5.32 Bohr mag/cell
     absolute magnetization    =     5.72 Bohr mag/cell
[tb_dev] Currently allocated     7.63E-05 Mbytes, locked:    0 /   2
[tb_pin] Currently allocated     0.00E+00 Mbytes, locked:    0 /   0

     iteration # 15     ecut=    60.00 Ry     beta= 0.30
     Davidson diagonalization with overlap

---- Real-time Memory Report at c_bands before calling an iterative solver
          1225 MiB given to the printing process from OS
             0 MiB allocation reported by mallinfo(arena+hblkhd)
        700690 MiB available memory on the node where the printing process lives
     GPU memory used/free/total (MiB): 2084 / 79066 / 81151
------------------
     ethr =  6.17E-04,  avg # of iterations =  1.4

     total cpu time spent up to now is       46.6 secs

     total energy              =   -1488.88491611 Ry
     estimated scf accuracy    <       1.04496147 Ry

     total magnetization       =     6.43 Bohr mag/cell
     absolute magnetization    =     6.62 Bohr mag/cell
[tb_dev] Currently allocated     7.63E-05 Mbytes, locked:    0 /   2
[tb_pin] Currently allocated     0.00E+00 Mbytes, locked:    0 /   0

     iteration # 16     ecut=    60.00 Ry     beta= 0.30
     Davidson diagonalization with overlap

---- Real-time Memory Report at c_bands before calling an iterative solver
          1234 MiB given to the printing process from OS
             0 MiB allocation reported by mallinfo(arena+hblkhd)
        700682 MiB available memory on the node where the printing process lives
     GPU memory used/free/total (MiB): 2084 / 79066 / 81151
------------------
     ethr =  6.17E-04,  avg # of iterations =  1.2

     total cpu time spent up to now is       49.0 secs

     total energy              =   -1488.88919537 Ry
     estimated scf accuracy    <       1.74630126 Ry

     total magnetization       =     7.71 Bohr mag/cell
     absolute magnetization    =     7.87 Bohr mag/cell
[tb_dev] Currently allocated     7.63E-05 Mbytes, locked:    0 /   2
[tb_pin] Currently allocated     0.00E+00 Mbytes, locked:    0 /   0

     iteration # 17     ecut=    60.00 Ry     beta= 0.30
     Davidson diagonalization with overlap

---- Real-time Memory Report at c_bands before calling an iterative solver
          1234 MiB given to the printing process from OS
             0 MiB allocation reported by mallinfo(arena+hblkhd)
        700686 MiB available memory on the node where the printing process lives
     GPU memory used/free/total (MiB): 2084 / 79066 / 81151
------------------
     ethr =  6.17E-04,  avg # of iterations =  1.4

     total cpu time spent up to now is       51.5 secs

     total energy              =   -1488.93283941 Ry
     estimated scf accuracy    <       1.45562952 Ry

     total magnetization       =     8.18 Bohr mag/cell
     absolute magnetization    =     8.33 Bohr mag/cell
[tb_dev] Currently allocated     7.63E-05 Mbytes, locked:    0 /   2
[tb_pin] Currently allocated     0.00E+00 Mbytes, locked:    0 /   0

     iteration # 18     ecut=    60.00 Ry     beta= 0.30
     Davidson diagonalization with overlap

---- Real-time Memory Report at c_bands before calling an iterative solver
          1234 MiB given to the printing process from OS
             0 MiB allocation reported by mallinfo(arena+hblkhd)
        700689 MiB available memory on the node where the printing process lives
     GPU memory used/free/total (MiB): 2084 / 79066 / 81151
------------------
     ethr =  6.17E-04,  avg # of iterations =  1.1

     total cpu time spent up to now is       53.9 secs

     total energy              =   -1488.92662592 Ry
     estimated scf accuracy    <       1.59493684 Ry

     total magnetization       =     6.98 Bohr mag/cell
     absolute magnetization    =     7.19 Bohr mag/cell
[tb_dev] Currently allocated     7.63E-05 Mbytes, locked:    0 /   2
[tb_pin] Currently allocated     0.00E+00 Mbytes, locked:    0 /   0

     iteration # 19     ecut=    60.00 Ry     beta= 0.30
     Davidson diagonalization with overlap

---- Real-time Memory Report at c_bands before calling an iterative solver
          1234 MiB given to the printing process from OS
             0 MiB allocation reported by mallinfo(arena+hblkhd)
        700681 MiB available memory on the node where the printing process lives
     GPU memory used/free/total (MiB): 2084 / 79066 / 81151
------------------
     ethr =  6.17E-04,  avg # of iterations =  1.2

     total cpu time spent up to now is       56.3 secs

     total energy              =   -1488.89537634 Ry
     estimated scf accuracy    <       0.98061750 Ry

     total magnetization       =     6.52 Bohr mag/cell
     absolute magnetization    =     6.77 Bohr mag/cell
[tb_dev] Currently allocated     7.63E-05 Mbytes, locked:    0 /   2
[tb_pin] Currently allocated     0.00E+00 Mbytes, locked:    0 /   0

     iteration # 20     ecut=    60.00 Ry     beta= 0.30
     Davidson diagonalization with overlap

---- Real-time Memory Report at c_bands before calling an iterative solver
          1234 MiB given to the printing process from OS
             0 MiB allocation reported by mallinfo(arena+hblkhd)
        700674 MiB available memory on the node where the printing process lives
     GPU memory used/free/total (MiB): 2084 / 79066 / 81151
------------------
     ethr =  6.17E-04,  avg # of iterations =  3.0

     negative rho (up, down):  1.719E-03 6.864E-04

     total cpu time spent up to now is       59.0 secs

     total energy              =   -1488.89927278 Ry
     estimated scf accuracy    <       0.36068539 Ry

     total magnetization       =     5.09 Bohr mag/cell
     absolute magnetization    =     5.49 Bohr mag/cell
[tb_dev] Currently allocated     7.63E-05 Mbytes, locked:    0 /   2
[tb_pin] Currently allocated     0.00E+00 Mbytes, locked:    0 /   0

     iteration # 21     ecut=    60.00 Ry     beta= 0.30
     Davidson diagonalization with overlap

---- Real-time Memory Report at c_bands before calling an iterative solver
          1234 MiB given to the printing process from OS
             0 MiB allocation reported by mallinfo(arena+hblkhd)
        700676 MiB available memory on the node where the printing process lives
     GPU memory used/free/total (MiB): 2084 / 79066 / 81151
------------------
     ethr =  3.76E-04,  avg # of iterations =  8.1

     total cpu time spent up to now is       62.3 secs

     total energy              =   -1488.78963742 Ry
     estimated scf accuracy    <       1.09373679 Ry

     total magnetization       =     5.30 Bohr mag/cell
     absolute magnetization    =     5.77 Bohr mag/cell
[tb_dev] Currently allocated     7.63E-05 Mbytes, locked:    0 /   2
[tb_pin] Currently allocated     0.00E+00 Mbytes, locked:    0 /   0

     iteration # 22     ecut=    60.00 Ry     beta= 0.30
     Davidson diagonalization with overlap

---- Real-time Memory Report at c_bands before calling an iterative solver
          1234 MiB given to the printing process from OS
             0 MiB allocation reported by mallinfo(arena+hblkhd)
        701765 MiB available memory on the node where the printing process lives
     GPU memory used/free/total (MiB): 2084 / 79066 / 81151
------------------
     ethr =  3.76E-04,  avg # of iterations =  2.9

     total cpu time spent up to now is       64.9 secs

     total energy              =   -1489.03171528 Ry
     estimated scf accuracy    <       0.36705614 Ry

     total magnetization       =     4.00 Bohr mag/cell
     absolute magnetization    =     4.46 Bohr mag/cell
[tb_dev] Currently allocated     7.63E-05 Mbytes, locked:    0 /   2
[tb_pin] Currently allocated     0.00E+00 Mbytes, locked:    0 /   0

     iteration # 23     ecut=    60.00 Ry     beta= 0.30
     Davidson diagonalization with overlap

---- Real-time Memory Report at c_bands before calling an iterative solver
          1234 MiB given to the printing process from OS
             0 MiB allocation reported by mallinfo(arena+hblkhd)
        703073 MiB available memory on the node where the printing process lives
     GPU memory used/free/total (MiB): 2084 / 79066 / 81151
------------------
     ethr =  3.76E-04,  avg # of iterations =  1.1

     total cpu time spent up to now is       67.4 secs

     total energy              =   -1489.01672976 Ry
     estimated scf accuracy    <       0.43430848 Ry

     total magnetization       =     3.07 Bohr mag/cell
     absolute magnetization    =     3.77 Bohr mag/cell
[tb_dev] Currently allocated     7.63E-05 Mbytes, locked:    0 /   2
[tb_pin] Currently allocated     0.00E+00 Mbytes, locked:    0 /   0

     iteration # 24     ecut=    60.00 Ry     beta= 0.30
     Davidson diagonalization with overlap

---- Real-time Memory Report at c_bands before calling an iterative solver
          1234 MiB given to the printing process from OS
             0 MiB allocation reported by mallinfo(arena+hblkhd)
        703106 MiB available memory on the node where the printing process lives
     GPU memory used/free/total (MiB): 2084 / 79066 / 81151
------------------
     ethr =  3.76E-04,  avg # of iterations =  1.5

     total cpu time spent up to now is       69.9 secs

     total energy              =   -1489.04708165 Ry
     estimated scf accuracy    <       0.57223195 Ry

     total magnetization       =     2.66 Bohr mag/cell
     absolute magnetization    =     3.38 Bohr mag/cell
[tb_dev] Currently allocated     7.63E-05 Mbytes, locked:    0 /   2
[tb_pin] Currently allocated     0.00E+00 Mbytes, locked:    0 /   0

     iteration # 25     ecut=    60.00 Ry     beta= 0.30
     Davidson diagonalization with overlap

---- Real-time Memory Report at c_bands before calling an iterative solver
          1234 MiB given to the printing process from OS
             0 MiB allocation reported by mallinfo(arena+hblkhd)
        703181 MiB available memory on the node where the printing process lives
     GPU memory used/free/total (MiB): 2084 / 79066 / 81151
------------------
     ethr =  3.76E-04,  avg # of iterations =  1.0

     total cpu time spent up to now is       72.3 secs

     total energy              =   -1488.97273496 Ry
     estimated scf accuracy    <       0.70064070 Ry

     total magnetization       =     2.49 Bohr mag/cell
     absolute magnetization    =     3.33 Bohr mag/cell
[tb_dev] Currently allocated     7.63E-05 Mbytes, locked:    0 /   2
[tb_pin] Currently allocated     0.00E+00 Mbytes, locked:    0 /   0

     iteration # 26     ecut=    60.00 Ry     beta= 0.30
     Davidson diagonalization with overlap

---- Real-time Memory Report at c_bands before calling an iterative solver
          1234 MiB given to the printing process from OS
             0 MiB allocation reported by mallinfo(arena+hblkhd)
        703212 MiB available memory on the node where the printing process lives
     GPU memory used/free/total (MiB): 2084 / 79066 / 81151
------------------
     ethr =  3.76E-04,  avg # of iterations =  1.1

     negative rho (up, down):  3.988E-02 1.714E-02

     total cpu time spent up to now is       74.8 secs

     total energy              =   -1488.86465643 Ry
     estimated scf accuracy    <       0.61587019 Ry

     total magnetization       =     3.82 Bohr mag/cell
     absolute magnetization    =     4.23 Bohr mag/cell
[tb_dev] Currently allocated     7.63E-05 Mbytes, locked:    0 /   2
[tb_pin] Currently allocated     0.00E+00 Mbytes, locked:    0 /   0

     iteration # 27     ecut=    60.00 Ry     beta= 0.30
     Davidson diagonalization with overlap

---- Real-time Memory Report at c_bands before calling an iterative solver
          1234 MiB given to the printing process from OS
             0 MiB allocation reported by mallinfo(arena+hblkhd)
        703235 MiB available memory on the node where the printing process lives
     GPU memory used/free/total (MiB): 2084 / 79066 / 81151
------------------
     ethr =  3.76E-04,  avg # of iterations =  4.6

     negative rho (up, down):  5.060E-02 4.090E-03

     total cpu time spent up to now is       77.6 secs

     total energy              =   -1489.01439576 Ry
     estimated scf accuracy    <       1.78846860 Ry

     total magnetization       =     6.57 Bohr mag/cell
     absolute magnetization    =     7.07 Bohr mag/cell
[tb_dev] Currently allocated     7.63E-05 Mbytes, locked:    0 /   2
[tb_pin] Currently allocated     0.00E+00 Mbytes, locked:    0 /   0

     iteration # 28     ecut=    60.00 Ry     beta= 0.30
     Davidson diagonalization with overlap

---- Real-time Memory Report at c_bands before calling an iterative solver
          1234 MiB given to the printing process from OS
             0 MiB allocation reported by mallinfo(arena+hblkhd)
        703220 MiB available memory on the node where the printing process lives
     GPU memory used/free/total (MiB): 2084 / 79066 / 81151
------------------
     ethr =  3.76E-04,  avg # of iterations =  1.2

     negative rho (up, down):  2.132E-03 0.000E+00

     total cpu time spent up to now is       80.1 secs

     total energy              =   -1488.84887030 Ry
     estimated scf accuracy    <       1.60298450 Ry

     total magnetization       =     6.25 Bohr mag/cell
     absolute magnetization    =     6.88 Bohr mag/cell
[tb_dev] Currently allocated     7.63E-05 Mbytes, locked:    0 /   2
[tb_pin] Currently allocated     0.00E+00 Mbytes, locked:    0 /   0

     iteration # 29     ecut=    60.00 Ry     beta= 0.30
     Davidson diagonalization with overlap

---- Real-time Memory Report at c_bands before calling an iterative solver
          1234 MiB given to the printing process from OS
             0 MiB allocation reported by mallinfo(arena+hblkhd)
        703227 MiB available memory on the node where the printing process lives
     GPU memory used/free/total (MiB): 2084 / 79066 / 81151
------------------
     ethr =  3.76E-04,  avg # of iterations =  1.6

     negative rho (up, down):  9.997E-03 3.580E-04

     total cpu time spent up to now is       82.6 secs

     total energy              =   -1488.95145122 Ry
     estimated scf accuracy    <       0.32024502 Ry

     total magnetization       =     5.45 Bohr mag/cell
     absolute magnetization    =     5.85 Bohr mag/cell
[tb_dev] Currently allocated     7.63E-05 Mbytes, locked:    0 /   2
[tb_pin] Currently allocated     0.00E+00 Mbytes, locked:    0 /   0

     iteration # 30     ecut=    60.00 Ry     beta= 0.30
     Davidson diagonalization with overlap

---- Real-time Memory Report at c_bands before calling an iterative solver
          1234 MiB given to the printing process from OS
             0 MiB allocation reported by mallinfo(arena+hblkhd)
        703817 MiB available memory on the node where the printing process lives
     GPU memory used/free/total (MiB): 2084 / 79066 / 81151
------------------
     ethr =  3.34E-04,  avg # of iterations =  1.2

     negative rho (up, down):  8.612E-02 1.019E-02

     total cpu time spent up to now is       85.1 secs

     total energy              =   -1489.08819415 Ry
     estimated scf accuracy    <       0.65532882 Ry

     total magnetization       =     4.97 Bohr mag/cell
     absolute magnetization    =     5.54 Bohr mag/cell
[tb_dev] Currently allocated     7.63E-05 Mbytes, locked:    0 /   2
[tb_pin] Currently allocated     0.00E+00 Mbytes, locked:    0 /   0

     iteration # 31     ecut=    60.00 Ry     beta= 0.30
     Davidson diagonalization with overlap

---- Real-time Memory Report at c_bands before calling an iterative solver
          1234 MiB given to the printing process from OS
             0 MiB allocation reported by mallinfo(arena+hblkhd)
        704033 MiB available memory on the node where the printing process lives
     GPU memory used/free/total (MiB): 2084 / 79066 / 81151
------------------
     ethr =  3.34E-04,  avg # of iterations =  3.0

     negative rho (up, down):  6.170E-02 5.127E-03

     total cpu time spent up to now is       87.8 secs

     total energy              =   -1489.01446705 Ry
     estimated scf accuracy    <       2.11285503 Ry

     total magnetization       =     4.49 Bohr mag/cell
     absolute magnetization    =     5.27 Bohr mag/cell
[tb_dev] Currently allocated     7.63E-05 Mbytes, locked:    0 /   2
[tb_pin] Currently allocated     0.00E+00 Mbytes, locked:    0 /   0

     iteration # 32     ecut=    60.00 Ry     beta= 0.30
     Davidson diagonalization with overlap

---- Real-time Memory Report at c_bands before calling an iterative solver
          1234 MiB given to the printing process from OS
             0 MiB allocation reported by mallinfo(arena+hblkhd)
        703787 MiB available memory on the node where the printing process lives
     GPU memory used/free/total (MiB): 2084 / 79066 / 81151
------------------
     ethr =  3.34E-04,  avg # of iterations =  1.0

     negative rho (up, down):  4.695E-02 5.379E-03

     total cpu time spent up to now is       90.3 secs

     total energy              =   -1489.01809849 Ry
     estimated scf accuracy    <       1.26679334 Ry

     total magnetization       =     4.76 Bohr mag/cell
     absolute magnetization    =     5.64 Bohr mag/cell
[tb_dev] Currently allocated     7.63E-05 Mbytes, locked:    0 /   2
[tb_pin] Currently allocated     0.00E+00 Mbytes, locked:    0 /   0

     iteration # 33     ecut=    60.00 Ry     beta= 0.30
     Davidson diagonalization with overlap

---- Real-time Memory Report at c_bands before calling an iterative solver
          1234 MiB given to the printing process from OS
             0 MiB allocation reported by mallinfo(arena+hblkhd)
        703294 MiB available memory on the node where the printing process lives
     GPU memory used/free/total (MiB): 2506 / 78645 / 81151
------------------
     ethr =  3.34E-04,  avg # of iterations =  1.1

     negative rho (up, down):  8.912E-03 6.557E-02

     total cpu time spent up to now is       92.7 secs

     total energy              =   -1489.09915694 Ry
     estimated scf accuracy    <       1.02134819 Ry

     total magnetization       =     4.44 Bohr mag/cell
     absolute magnetization    =     5.09 Bohr mag/cell
[tb_dev] Currently allocated     7.63E-05 Mbytes, locked:    0 /   2
[tb_pin] Currently allocated     0.00E+00 Mbytes, locked:    0 /   0

     iteration # 34     ecut=    60.00 Ry     beta= 0.30
     Davidson diagonalization with overlap

---- Real-time Memory Report at c_bands before calling an iterative solver
          1234 MiB given to the printing process from OS
             0 MiB allocation reported by mallinfo(arena+hblkhd)
        703926 MiB available memory on the node where the printing process lives
     GPU memory used/free/total (MiB): 2084 / 79066 / 81151
------------------
     ethr =  3.34E-04,  avg # of iterations =  1.3

     negative rho (up, down):  0.000E+00 1.941E-01

     total cpu time spent up to now is       95.2 secs

     total energy              =   -1488.92251092 Ry
     estimated scf accuracy    <       1.26690512 Ry

     total magnetization       =     3.95 Bohr mag/cell
     absolute magnetization    =     4.54 Bohr mag/cell
[tb_dev] Currently allocated     7.63E-05 Mbytes, locked:    0 /   2
[tb_pin] Currently allocated     0.00E+00 Mbytes, locked:    0 /   0

     iteration # 35     ecut=    60.00 Ry     beta= 0.30
     Davidson diagonalization with overlap

---- Real-time Memory Report at c_bands before calling an iterative solver
          1234 MiB given to the printing process from OS
             0 MiB allocation reported by mallinfo(arena+hblkhd)
        703611 MiB available memory on the node where the printing process lives
     GPU memory used/free/total (MiB): 2084 / 79066 / 81151
------------------
     ethr =  3.34E-04,  avg # of iterations =  2.1

     negative rho (up, down):  0.000E+00 2.293E-01

     total cpu time spent up to now is       97.8 secs

     total energy              =   -1489.09585183 Ry
     estimated scf accuracy    <       0.13157125 Ry

     total magnetization       =     2.08 Bohr mag/cell
     absolute magnetization    =     2.71 Bohr mag/cell
[tb_dev] Currently allocated     7.63E-05 Mbytes, locked:    0 /   2
[tb_pin] Currently allocated     0.00E+00 Mbytes, locked:    0 /   0

     iteration # 36     ecut=    60.00 Ry     beta= 0.30
     Davidson diagonalization with overlap

---- Real-time Memory Report at c_bands before calling an iterative solver
          1234 MiB given to the printing process from OS
             0 MiB allocation reported by mallinfo(arena+hblkhd)
        703746 MiB available memory on the node where the printing process lives
     GPU memory used/free/total (MiB): 2084 / 79066 / 81151
------------------
     ethr =  1.37E-04,  avg # of iterations =  3.2

     negative rho (up, down):  0.000E+00 9.095E-02

     total cpu time spent up to now is      100.6 secs

     total energy              =   -1489.10363585 Ry
     estimated scf accuracy    <       0.05017322 Ry

     total magnetization       =     2.20 Bohr mag/cell
     absolute magnetization    =     2.57 Bohr mag/cell
[tb_dev] Currently allocated     7.63E-05 Mbytes, locked:    0 /   2
[tb_pin] Currently allocated     0.00E+00 Mbytes, locked:    0 /   0

     iteration # 37     ecut=    60.00 Ry     beta= 0.30
     Davidson diagonalization with overlap

---- Real-time Memory Report at c_bands before calling an iterative solver
          1234 MiB given to the printing process from OS
             0 MiB allocation reported by mallinfo(arena+hblkhd)
        703795 MiB available memory on the node where the printing process lives
     GPU memory used/free/total (MiB): 2084 / 79066 / 81151
------------------
     ethr =  5.23E-05,  avg # of iterations =  5.3

     total cpu time spent up to now is      103.5 secs

     total energy              =   -1489.08432447 Ry
     estimated scf accuracy    <       0.05585085 Ry

     total magnetization       =     2.34 Bohr mag/cell
     absolute magnetization    =     2.43 Bohr mag/cell
[tb_dev] Currently allocated     7.63E-05 Mbytes, locked:    0 /   2
[tb_pin] Currently allocated     0.00E+00 Mbytes, locked:    0 /   0

     iteration # 38     ecut=    60.00 Ry     beta= 0.30
     Davidson diagonalization with overlap

---- Real-time Memory Report at c_bands before calling an iterative solver
          1234 MiB given to the printing process from OS
             0 MiB allocation reported by mallinfo(arena+hblkhd)
        703850 MiB available memory on the node where the printing process lives
     GPU memory used/free/total (MiB): 2084 / 79066 / 81151
------------------
     ethr =  5.23E-05,  avg # of iterations =  2.9

     total cpu time spent up to now is      106.2 secs

     total energy              =   -1489.12124635 Ry
     estimated scf accuracy    <       0.10978162 Ry

     total magnetization       =     2.21 Bohr mag/cell
     absolute magnetization    =     2.67 Bohr mag/cell
[tb_dev] Currently allocated     7.63E-05 Mbytes, locked:    0 /   2
[tb_pin] Currently allocated     0.00E+00 Mbytes, locked:    0 /   0

     iteration # 39     ecut=    60.00 Ry     beta= 0.30
     Davidson diagonalization with overlap

---- Real-time Memory Report at c_bands before calling an iterative solver
          1234 MiB given to the printing process from OS
             0 MiB allocation reported by mallinfo(arena+hblkhd)
        703891 MiB available memory on the node where the printing process lives
     GPU memory used/free/total (MiB): 2084 / 79066 / 81151
------------------
     ethr =  5.23E-05,  avg # of iterations =  1.3

     total cpu time spent up to now is      108.6 secs

     total energy              =   -1489.12578356 Ry
     estimated scf accuracy    <       0.01230045 Ry

     total magnetization       =     2.53 Bohr mag/cell
     absolute magnetization    =     2.60 Bohr mag/cell
[tb_dev] Currently allocated     7.63E-05 Mbytes, locked:    0 /   2
[tb_pin] Currently allocated     0.00E+00 Mbytes, locked:    0 /   0

     iteration # 40     ecut=    60.00 Ry     beta= 0.30
     Davidson diagonalization with overlap

---- Real-time Memory Report at c_bands before calling an iterative solver
          1234 MiB given to the printing process from OS
             0 MiB allocation reported by mallinfo(arena+hblkhd)
        703902 MiB available memory on the node where the printing process lives
     GPU memory used/free/total (MiB): 2084 / 79066 / 81151
------------------
     c_bands:  1 eigenvalues not converged
     ethr =  1.28E-05,  avg # of iterations =  4.2

     total cpu time spent up to now is      111.4 secs

     total energy              =   -1489.12683735 Ry
     estimated scf accuracy    <       0.00680862 Ry

     total magnetization       =     2.26 Bohr mag/cell
     absolute magnetization    =     2.36 Bohr mag/cell
[tb_dev] Currently allocated     7.63E-05 Mbytes, locked:    0 /   2
[tb_pin] Currently allocated     0.00E+00 Mbytes, locked:    0 /   0

     iteration # 41     ecut=    60.00 Ry     beta= 0.30
     Davidson diagonalization with overlap

---- Real-time Memory Report at c_bands before calling an iterative solver
          1234 MiB given to the printing process from OS
             0 MiB allocation reported by mallinfo(arena+hblkhd)
        703911 MiB available memory on the node where the printing process lives
     GPU memory used/free/total (MiB): 2084 / 79066 / 81151
------------------
     ethr =  7.09E-06,  avg # of iterations =  4.1

     total cpu time spent up to now is      114.2 secs

     total energy              =   -1489.12770115 Ry
     estimated scf accuracy    <       0.00210729 Ry

     total magnetization       =     2.46 Bohr mag/cell
     absolute magnetization    =     2.53 Bohr mag/cell
[tb_dev] Currently allocated     7.63E-05 Mbytes, locked:    0 /   2
[tb_pin] Currently allocated     0.00E+00 Mbytes, locked:    0 /   0

     iteration # 42     ecut=    60.00 Ry     beta= 0.30
     Davidson diagonalization with overlap

---- Real-time Memory Report at c_bands before calling an iterative solver
          1234 MiB given to the printing process from OS
             0 MiB allocation reported by mallinfo(arena+hblkhd)
        703920 MiB available memory on the node where the printing process lives
     GPU memory used/free/total (MiB): 2084 / 79066 / 81151
------------------
     c_bands:  1 eigenvalues not converged
     c_bands:  1 eigenvalues not converged
     ethr =  2.20E-06,  avg # of iterations =  9.6

     total cpu time spent up to now is      117.8 secs

     total energy              =   -1489.12850490 Ry
     estimated scf accuracy    <       0.00278274 Ry

     total magnetization       =     2.27 Bohr mag/cell
     absolute magnetization    =     2.47 Bohr mag/cell
[tb_dev] Currently allocated     7.63E-05 Mbytes, locked:    0 /   2
[tb_pin] Currently allocated     0.00E+00 Mbytes, locked:    0 /   0

     iteration # 43     ecut=    60.00 Ry     beta= 0.30
     Davidson diagonalization with overlap

---- Real-time Memory Report at c_bands before calling an iterative solver
          1234 MiB given to the printing process from OS
             0 MiB allocation reported by mallinfo(arena+hblkhd)
        703923 MiB available memory on the node where the printing process lives
     GPU memory used/free/total (MiB): 2084 / 79066 / 81151
------------------
     ethr =  2.20E-06,  avg # of iterations =  3.4

     total cpu time spent up to now is      120.5 secs

     total energy              =   -1489.12897303 Ry
     estimated scf accuracy    <       0.00042118 Ry

     total magnetization       =     2.38 Bohr mag/cell
     absolute magnetization    =     2.54 Bohr mag/cell
[tb_dev] Currently allocated     7.63E-05 Mbytes, locked:    0 /   2
[tb_pin] Currently allocated     0.00E+00 Mbytes, locked:    0 /   0

     iteration # 44     ecut=    60.00 Ry     beta= 0.30
     Davidson diagonalization with overlap

---- Real-time Memory Report at c_bands before calling an iterative solver
          1234 MiB given to the printing process from OS
             0 MiB allocation reported by mallinfo(arena+hblkhd)
        703943 MiB available memory on the node where the printing process lives
     GPU memory used/free/total (MiB): 2084 / 79066 / 81151
------------------
     ethr =  4.39E-07,  avg # of iterations =  8.9

     total cpu time spent up to now is      123.9 secs

     total energy              =   -1489.12913174 Ry
     estimated scf accuracy    <       0.00012591 Ry

     total magnetization       =     2.33 Bohr mag/cell
     absolute magnetization    =     2.51 Bohr mag/cell
[tb_dev] Currently allocated     7.63E-05 Mbytes, locked:    0 /   2
[tb_pin] Currently allocated     0.00E+00 Mbytes, locked:    0 /   0

     iteration # 45     ecut=    60.00 Ry     beta= 0.30
     Davidson diagonalization with overlap

---- Real-time Memory Report at c_bands before calling an iterative solver
          1234 MiB given to the printing process from OS
             0 MiB allocation reported by mallinfo(arena+hblkhd)
        703955 MiB available memory on the node where the printing process lives
     GPU memory used/free/total (MiB): 2084 / 79066 / 81151
------------------
     ethr =  1.31E-07,  avg # of iterations =  3.3

     total cpu time spent up to now is      126.6 secs

     total energy              =   -1489.12914439 Ry
     estimated scf accuracy    <       0.00006106 Ry

     total magnetization       =     2.34 Bohr mag/cell
     absolute magnetization    =     2.53 Bohr mag/cell
[tb_dev] Currently allocated     7.63E-05 Mbytes, locked:    0 /   2
[tb_pin] Currently allocated     0.00E+00 Mbytes, locked:    0 /   0

     iteration # 46     ecut=    60.00 Ry     beta= 0.30
     Davidson diagonalization with overlap

---- Real-time Memory Report at c_bands before calling an iterative solver
          1234 MiB given to the printing process from OS
             0 MiB allocation reported by mallinfo(arena+hblkhd)
        703957 MiB available memory on the node where the printing process lives
     GPU memory used/free/total (MiB): 2084 / 79066 / 81151
------------------
     ethr =  6.36E-08,  avg # of iterations =  4.7

     total cpu time spent up to now is      129.7 secs

     total energy              =   -1489.12918900 Ry
     estimated scf accuracy    <       0.00006171 Ry

     total magnetization       =     2.35 Bohr mag/cell
     absolute magnetization    =     2.55 Bohr mag/cell
[tb_dev] Currently allocated     7.63E-05 Mbytes, locked:    0 /   2
[tb_pin] Currently allocated     0.00E+00 Mbytes, locked:    0 /   0

     iteration # 47     ecut=    60.00 Ry     beta= 0.30
     Davidson diagonalization with overlap

---- Real-time Memory Report at c_bands before calling an iterative solver
          1234 MiB given to the printing process from OS
             0 MiB allocation reported by mallinfo(arena+hblkhd)
        703970 MiB available memory on the node where the printing process lives
     GPU memory used/free/total (MiB): 2084 / 79066 / 81151
------------------
     ethr =  6.36E-08,  avg # of iterations =  2.0

     total cpu time spent up to now is      132.3 secs

     total energy              =   -1489.12918938 Ry
     estimated scf accuracy    <       0.00001656 Ry

     total magnetization       =     2.32 Bohr mag/cell
     absolute magnetization    =     2.54 Bohr mag/cell
[tb_dev] Currently allocated     7.63E-05 Mbytes, locked:    0 /   2
[tb_pin] Currently allocated     0.00E+00 Mbytes, locked:    0 /   0

     iteration # 48     ecut=    60.00 Ry     beta= 0.30
     Davidson diagonalization with overlap

---- Real-time Memory Report at c_bands before calling an iterative solver
          1234 MiB given to the printing process from OS
             0 MiB allocation reported by mallinfo(arena+hblkhd)
        703994 MiB available memory on the node where the printing process lives
     GPU memory used/free/total (MiB): 2084 / 79066 / 81151
------------------
     ethr =  1.72E-08,  avg # of iterations =  6.3

     total cpu time spent up to now is      135.4 secs

     total energy              =   -1489.12919191 Ry
     estimated scf accuracy    <       0.00000721 Ry

     total magnetization       =     2.33 Bohr mag/cell
     absolute magnetization    =     2.54 Bohr mag/cell
[tb_dev] Currently allocated     7.63E-05 Mbytes, locked:    0 /   2
[tb_pin] Currently allocated     0.00E+00 Mbytes, locked:    0 /   0

     iteration # 49     ecut=    60.00 Ry     beta= 0.30
     Davidson diagonalization with overlap

---- Real-time Memory Report at c_bands before calling an iterative solver
          1234 MiB given to the printing process from OS
             0 MiB allocation reported by mallinfo(arena+hblkhd)
        703988 MiB available memory on the node where the printing process lives
     GPU memory used/free/total (MiB): 2084 / 79066 / 81151
------------------
     ethr =  7.51E-09,  avg # of iterations =  4.8

     total cpu time spent up to now is      138.3 secs

     total energy              =   -1489.12919354 Ry
     estimated scf accuracy    <       0.00000238 Ry

     total magnetization       =     2.33 Bohr mag/cell
     absolute magnetization    =     2.54 Bohr mag/cell
[tb_dev] Currently allocated     7.63E-05 Mbytes, locked:    0 /   2
[tb_pin] Currently allocated     0.00E+00 Mbytes, locked:    0 /   0

     iteration # 50     ecut=    60.00 Ry     beta= 0.30
     Davidson diagonalization with overlap

---- Real-time Memory Report at c_bands before calling an iterative solver
          1234 MiB given to the printing process from OS
             0 MiB allocation reported by mallinfo(arena+hblkhd)
        703812 MiB available memory on the node where the printing process lives
     GPU memory used/free/total (MiB): 2084 / 79066 / 81151
------------------
     ethr =  2.48E-09,  avg # of iterations =  6.2

     total cpu time spent up to now is      141.5 secs

     total energy              =   -1489.12919451 Ry
     estimated scf accuracy    <       0.00000117 Ry

     total magnetization       =     2.33 Bohr mag/cell
     absolute magnetization    =     2.54 Bohr mag/cell
[tb_dev] Currently allocated     7.63E-05 Mbytes, locked:    0 /   2
[tb_pin] Currently allocated     0.00E+00 Mbytes, locked:    0 /   0

     iteration # 51     ecut=    60.00 Ry     beta= 0.30
     Davidson diagonalization with overlap

---- Real-time Memory Report at c_bands before calling an iterative solver
          1234 MiB given to the printing process from OS
             0 MiB allocation reported by mallinfo(arena+hblkhd)
        703618 MiB available memory on the node where the printing process lives
     GPU memory used/free/total (MiB): 2084 / 79066 / 81151
------------------
     ethr =  1.22E-09,  avg # of iterations =  3.1

     total cpu time spent up to now is      144.2 secs

     total energy              =   -1489.12919493 Ry
     estimated scf accuracy    <       0.00000071 Ry

     total magnetization       =     2.32 Bohr mag/cell
     absolute magnetization    =     2.54 Bohr mag/cell
[tb_dev] Currently allocated     7.63E-05 Mbytes, locked:    0 /   2
[tb_pin] Currently allocated     0.00E+00 Mbytes, locked:    0 /   0

     iteration # 52     ecut=    60.00 Ry     beta= 0.30
     Davidson diagonalization with overlap

---- Real-time Memory Report at c_bands before calling an iterative solver
          1234 MiB given to the printing process from OS
             0 MiB allocation reported by mallinfo(arena+hblkhd)
        703825 MiB available memory on the node where the printing process lives
     GPU memory used/free/total (MiB): 2084 / 79066 / 81151
------------------
     ethr =  7.38E-10,  avg # of iterations =  3.5
 
     Magnetic moment per site  (integrated on atomic sphere of radius R)
     atom   1 (R=0.161)  charge= 14.1620  magn=  0.6373
     atom   2 (R=0.161)  charge= 14.1609  magn=  0.6352
     atom   3 (R=0.161)  charge= 14.1609  magn=  0.6352
     atom   4 (R=0.161)  charge=  5.2494  magn=  0.0608
     atom   5 (R=0.161)  charge=  5.2494  magn=  0.0608
     atom   6 (R=0.161)  charge=  5.2494  magn=  0.0608
     atom   7 (R=0.161)  charge=  5.2630  magn=  0.0532
     atom   8 (R=0.161)  charge=  5.2630  magn=  0.0532
     atom   9 (R=0.161)  charge=  5.2630  magn=  0.0532
     atom  10 (R=0.296)  charge=  8.0942  magn= -0.0291

     total cpu time spent up to now is      146.9 secs

     End of self-consistent calculation

 ------ SPIN UP ------------


          k = 0.0000 0.0000 0.0000 ( 11393 PWs)   bands (ev):

   -93.4619 -93.4570 -93.4558 -56.7139 -56.7064 -56.7022 -56.6786 -56.6786
   -56.6781 -56.6781 -56.6415 -56.6415 -52.2502 -24.1679 -24.1679 -24.1186
   -16.5363 -15.0257 -15.0257 -14.9498 -14.9498 -14.9283  -2.9919  -2.7015
    -2.7015  -2.6333  -2.6333  -2.3012  -2.3012  -2.2539  -2.2381  -0.9449
    -0.9449  -0.8490  -0.8490  -0.5032  -0.4870   0.4387   0.7860   0.7860
     0.8202   0.8215   1.1557   1.1557   1.7785   1.8114   1.8114   1.8337
     1.8337   2.3551   3.8301   3.8301   3.8442   3.8442   4.4691   4.4691
     6.1524   8.4352   9.2855   9.2855  10.1689  10.1689  10.5515  11.0222

     occupation numbers 
     1.0000   1.0000   1.0000   1.0000   1.0000   1.0000   1.0000   1.0000
     1.0000   1.0000   1.0000   1.0000   1.0000   1.0000   1.0000   1.0000
     1.0000   1.0000   1.0000   1.0000   1.0000   1.0000   1.0000   1.0000
     1.0000   1.0000   1.0000   1.0000   1.0000   1.0000   1.0000   1.0000
     1.0000   1.0000   1.0000   1.0000   1.0000   1.0000   1.0000   1.0000
     1.0000   1.0000   1.0000   1.0000   1.0100   1.0148   1.0148   1.0189
     1.0189   0.6901   0.0000   0.0000   0.0000   0.0000   0.0000   0.0000
     0.0000   0.0000   0.0000   0.0000   0.0000   0.0000   0.0000   0.0000

          k = 0.0000 0.0000-0.2526 ( 11446 PWs)   bands (ev):

   -93.4620 -93.4570 -93.4558 -56.7140 -56.7066 -56.7023 -56.6787 -56.6787
   -56.6782 -56.6782 -56.6416 -56.6416 -52.2503 -24.1680 -24.1680 -24.1188
   -16.5363 -15.0257 -15.0257 -14.9498 -14.9498 -14.9284  -2.9895  -2.7015
    -2.7015  -2.6334  -2.6334  -2.3013  -2.3013  -2.2539  -2.2381  -0.9449
    -0.9449  -0.8491  -0.8491  -0.5034  -0.4871   0.3924   0.7860   0.7860
     0.8201   0.8214   1.1556   1.1556   1.8113   1.8113   1.8337   1.8337
     1.8541   2.3741   3.8305   3.8305   3.8445   3.8445   4.4691   4.4691
     5.8674   9.2755   9.2755   9.4674  10.0004  10.1580  10.1580  10.7099

     occupation numbers 
     1.0000   1.0000   1.0000   1.0000   1.0000   1.0000   1.0000   1.0000
     1.0000   1.0000   1.0000   1.0000   1.0000   1.0000   1.0000   1.0000
     1.0000   1.0000   1.0000   1.0000   1.0000   1.0000   1.0000   1.0000
     1.0000   1.0000   1.0000   1.0000   1.0000   1.0000   1.0000   1.0000
     1.0000   1.0000   1.0000   1.0000   1.0000   1.0000   1.0000   1.0000
     1.0000   1.0000   1.0000   1.0000   1.0148   1.0148   1.0189   1.0189
     1.0233   0.6380   0.0000   0.0000   0.0000   0.0000   0.0000   0.0000
     0.0000   0.0000   0.0000   0.0000   0.0000   0.0000   0.0000   0.0000

          k = 0.0000 0.1925 0.0000 ( 11360 PWs)   bands (ev):

   -93.4615 -93.4572 -93.4560 -56.7132 -56.7068 -56.7025 -56.6866 -56.6843
   -56.6689 -56.6678 -56.6462 -56.6427 -52.2502 -24.1680 -24.1679 -24.1184
   -16.4385 -15.1237 -15.0595 -14.9687 -14.9318 -14.9215  -3.0841  -2.8732
    -2.8538  -2.6611  -2.5697  -2.4225  -2.2403  -1.8729  -1.6976  -1.1631
    -1.1445  -0.9893  -0.9585  -0.2088  -0.1619   0.2531   0.3434   0.6682
     0.8918   0.9634   1.2137   1.4696   1.5814   1.6044   1.8809   1.8934
     1.9628   2.5647   3.7985   3.8863   3.8967   3.9055   4.1985   4.4057
     6.3605   7.6438   8.6281   8.7726   9.3402  10.9832  11.2401  11.7402

     occupation numbers 
     1.0000   1.0000   1.0000   1.0000   1.0000   1.0000   1.0000   1.0000
     1.0000   1.0000   1.0000   1.0000   1.0000   1.0000   1.0000   1.0000
     1.0000   1.0000   1.0000   1.0000   1.0000   1.0000   1.0000   1.0000
     1.0000   1.0000   1.0000   1.0000   1.0000   1.0000   1.0000   1.0000
     1.0000   1.0000   1.0000   1.0000   1.0000   1.0000   1.0000   1.0000
     1.0000   1.0000   1.0000   1.0001   1.0005   1.0007   1.0301   1.0337
     1.0565   0.1858   0.0000   0.0000   0.0000   0.0000   0.0000   0.0000
     0.0000   0.0000   0.0000   0.0000   0.0000   0.0000   0.0000   0.0000

          k = 0.0000 0.1925-0.2526 ( 11384 PWs)   bands (ev):

   -93.4615 -93.4572 -93.4560 -56.7133 -56.7068 -56.7025 -56.6866 -56.6843
   -56.6689 -56.6678 -56.6462 -56.6427 -52.2502 -24.1680 -24.1679 -24.1186
   -16.4386 -15.1238 -15.0595 -14.9687 -14.9318 -14.9216  -3.0841  -2.8713
    -2.8536  -2.6611  -2.5698  -2.4228  -2.2403  -1.8728  -1.6976  -1.1631
    -1.1446  -0.9892  -0.9585  -0.2088  -0.1619   0.2533   0.3407   0.6309
     0.8917   0.9634   1.2137   1.4688   1.5815   1.6045   1.8932   1.9449
     1.9626   2.5741   3.7997   3.8865   3.8971   3.9053   4.2149   4.4039
     6.1117   7.6326   8.6191   9.3172   9.6823  10.4369  11.0864  11.2315

     occupation numbers 
     1.0000   1.0000   1.0000   1.0000   1.0000   1.0000   1.0000   1.0000
     1.0000   1.0000   1.0000   1.0000   1.0000   1.0000   1.0000   1.0000
     1.0000   1.0000   1.0000   1.0000   1.0000   1.0000   1.0000   1.0000
     1.0000   1.0000   1.0000   1.0000   1.0000   1.0000   1.0000   1.0000
     1.0000   1.0000   1.0000   1.0000   1.0000   1.0000   1.0000   1.0000
     1.0000   1.0000   1.0000   1.0001   1.0005   1.0007   1.0336   1.0503
     1.0564   0.1710   0.0000   0.0000   0.0000   0.0000   0.0000   0.0000
     0.0000   0.0000   0.0000   0.0000   0.0000   0.0000   0.0000   0.0000

          k = 0.0000 0.3849 0.0000 ( 11350 PWs)   bands (ev):

   -93.4604 -93.4578 -93.4564 -56.7116 -56.7077 -56.7032 -56.6923 -56.6820
   -56.6597 -56.6583 -56.6579 -56.6462 -52.2502 -24.1682 -24.1680 -24.1184
   -16.1675 -15.4044 -15.1015 -15.0159 -14.9069 -14.9051  -3.4924  -2.7295
    -2.6754  -2.6436  -2.5307  -2.3352  -2.1053  -1.6717  -1.5486  -1.2916
    -1.2713  -1.1402  -0.6743  -0.6167  -0.2379   0.0677   0.3767   0.9469
     0.9761   1.2310   1.3264   1.3504   1.3890   1.7550   1.7664   1.9542
     2.0099   3.1426   3.7606   3.8147   3.8471   3.9097   4.1853   4.2201
     5.7952   6.9413   8.0469   8.6803   9.2819   9.6858  11.6297  11.7338

     occupation numbers 
     1.0000   1.0000   1.0000   1.0000   1.0000   1.0000   1.0000   1.0000
     1.0000   1.0000   1.0000   1.0000   1.0000   1.0000   1.0000   1.0000
     1.0000   1.0000   1.0000   1.0000   1.0000   1.0000   1.0000   1.0000
     1.0000   1.0000   1.0000   1.0000   1.0000   1.0000   1.0000   1.0000
     1.0000   1.0000   1.0000   1.0000   1.0000   1.0000   1.0000   1.0000
     1.0000   1.0000   1.0000   1.0000   1.0000   1.0074   1.0086   1.0535
     1.0718   0.0000   0.0000   0.0000   0.0000   0.0000   0.0000   0.0000
     0.0000   0.0000   0.0000   0.0000   0.0000   0.0000   0.0000   0.0000

          k = 0.0000 0.3849-0.2526 ( 11352 PWs)   bands (ev):

   -93.4605 -93.4579 -93.4564 -56.7117 -56.7077 -56.7032 -56.6922 -56.6820
   -56.6598 -56.6583 -56.6578 -56.6462 -52.2502 -24.1682 -24.1680 -24.1185
   -16.1676 -15.4044 -15.1015 -15.0159 -14.9070 -14.9051  -3.4924  -2.7296
    -2.6755  -2.6440  -2.5294  -2.3352  -2.1053  -1.6717  -1.5486  -1.2911
    -1.2712  -1.1403  -0.6737  -0.6167  -0.2379   0.0679   0.3766   0.9468
     0.9576   1.2310   1.3268   1.3504   1.3890   1.7548   1.7629   1.9769
     2.0086   3.1192   3.8183   3.8313   3.8436   3.9096   4.1856   4.2055
     5.7938   6.7826   8.0429   8.6627   9.3079  10.2803  11.4080  11.6599

     occupation numbers 
     1.0000   1.0000   1.0000   1.0000   1.0000   1.0000   1.0000   1.0000
     1.0000   1.0000   1.0000   1.0000   1.0000   1.0000   1.0000   1.0000
     1.0000   1.0000   1.0000   1.0000   1.0000   1.0000   1.0000   1.0000
     1.0000   1.0000   1.0000   1.0000   1.0000   1.0000   1.0000   1.0000
     1.0000   1.0000   1.0000   1.0000   1.0000   1.0000   1.0000   1.0000
     1.0000   1.0000   1.0000   1.0000   1.0000   1.0074   1.0082   1.0613
     1.0715   0.0000   0.0000   0.0000   0.0000   0.0000   0.0000   0.0000
     0.0000   0.0000   0.0000   0.0000   0.0000   0.0000   0.0000   0.0000

          k = 0.0000-0.5774 0.0000 ( 11352 PWs)   bands (ev):

   -93.4594 -93.4587 -93.4567 -56.7102 -56.7087 -56.7035 -56.6942 -56.6722
   -56.6717 -56.6544 -56.6522 -56.6518 -52.2502 -24.1684 -24.1681 -24.1184
   -15.7900 -15.7879 -15.1196 -15.0383 -14.8979 -14.8969  -3.6418  -2.7394
    -2.7265  -2.3189  -2.3187  -2.0910  -1.9665  -1.9661  -1.8291  -1.3061
    -1.2866  -1.2858  -0.7895  -0.7887  -0.1463   0.1648   0.8767   0.8819
     0.8886   1.2261   1.2456   1.2466   1.6317   1.7724   1.7807   1.9358
     1.9375   3.6230   3.6719   3.8405   3.9130   3.9337   4.1465   4.3699
     4.5813   7.6310   7.8465   8.2298   8.4742  10.6734  10.9799  11.4358

     occupation numbers 
     1.0000   1.0000   1.0000   1.0000   1.0000   1.0000   1.0000   1.0000
     1.0000   1.0000   1.0000   1.0000   1.0000   1.0000   1.0000   1.0000
     1.0000   1.0000   1.0000   1.0000   1.0000   1.0000   1.0000   1.0000
     1.0000   1.0000   1.0000   1.0000   1.0000   1.0000   1.0000   1.0000
     1.0000   1.0000   1.0000   1.0000   1.0000   1.0000   1.0000   1.0000
     1.0000   1.0000   1.0000   1.0000   1.0012   1.0093   1.0103   1.0472
     1.0477   0.0000   0.0000   0.0000   0.0000   0.0000   0.0000   0.0000
     0.0000   0.0000   0.0000   0.0000   0.0000   0.0000   0.0000   0.0000

          k = 0.0000-0.5774-0.2526 ( 11344 PWs)   bands (ev):

   -93.4594 -93.4587 -93.4566 -56.7103 -56.7087 -56.7035 -56.6942 -56.6722
   -56.6718 -56.6544 -56.6522 -56.6517 -52.2502 -24.1684 -24.1680 -24.1184
   -15.7900 -15.7879 -15.1196 -15.0383 -14.8979 -14.8969  -3.6418  -2.7399
    -2.7268  -2.3188  -2.3185  -2.0910  -1.9661  -1.9655  -1.8291  -1.3053
    -1.2865  -1.2854  -0.7896  -0.7887  -0.1461   0.1653   0.8749   0.8791
     0.8885   1.2261   1.2460   1.2469   1.6316   1.7771   1.7834   1.9304
     1.9344   3.5478   3.6426   3.9079   3.9498   3.9586   4.1359   4.3699
     4.6007   7.5717   7.8464   8.1584   8.4535  10.9161  11.3201  11.4311

     occupation numbers 
     1.0000   1.0000   1.0000   1.0000   1.0000   1.0000   1.0000   1.0000
     1.0000   1.0000   1.0000   1.0000   1.0000   1.0000   1.0000   1.0000
     1.0000   1.0000   1.0000   1.0000   1.0000   1.0000   1.0000   1.0000
     1.0000   1.0000   1.0000   1.0000   1.0000   1.0000   1.0000   1.0000
     1.0000   1.0000   1.0000   1.0000   1.0000   1.0000   1.0000   1.0000
     1.0000   1.0000   1.0000   1.0000   1.0012   1.0098   1.0106   1.0454
     1.0467   0.0000   0.0000   0.0000   0.0000   0.0000   0.0000   0.0000
     0.0000   0.0000   0.0000   0.0000   0.0000   0.0000   0.0000   0.0000

          k = 0.1667 0.2887 0.0000 ( 11373 PWs)   bands (ev):

   -93.4608 -93.4576 -93.4563 -56.7121 -56.7074 -56.7030 -56.6876 -56.6875
   -56.6611 -56.6610 -56.6547 -56.6447 -52.2502 -24.1682 -24.1681 -24.1185
   -16.2542 -15.2246 -15.2238 -14.9368 -14.9368 -14.9110  -3.1630  -3.1629
    -2.6734  -2.5618  -2.5049  -2.4958  -2.1281  -1.6066  -1.5995  -1.1852
    -1.1773  -0.9975  -0.9910  -0.5446   0.0823   0.0954   0.0964   0.8788
     1.1015   1.1039   1.2358   1.4084   1.4089   1.6775   1.9088   1.9108
     1.9589   2.9492   3.8052   3.8297   3.8399   4.0134   4.0162   4.3388
     6.6356   6.7908   7.0324   9.3480  10.0606  10.4117  10.6077  10.9445

     occupation numbers 
     1.0000   1.0000   1.0000   1.0000   1.0000   1.0000   1.0000   1.0000
     1.0000   1.0000   1.0000   1.0000   1.0000   1.0000   1.0000   1.0000
     1.0000   1.0000   1.0000   1.0000   1.0000   1.0000   1.0000   1.0000
     1.0000   1.0000   1.0000   1.0000   1.0000   1.0000   1.0000   1.0000
     1.0000   1.0000   1.0000   1.0000   1.0000   1.0000   1.0000   1.0000
     1.0000   1.0000   1.0000   1.0000   1.0000   1.0025   1.0384   1.0390
     1.0551   0.0010   0.0000   0.0000   0.0000   0.0000   0.0000   0.0000
     0.0000   0.0000   0.0000   0.0000   0.0000   0.0000   0.0000   0.0000

          k = 0.1667 0.2887-0.2526 ( 11348 PWs)   bands (ev):

   -93.4608 -93.4576 -93.4563 -56.7122 -56.7074 -56.7030 -56.6875 -56.6874
   -56.6610 -56.6610 -56.6547 -56.6447 -52.2502 -24.1681 -24.1679 -24.1185
   -16.2542 -15.2246 -15.2238 -14.9368 -14.9368 -14.9111  -3.1630  -3.1629
    -2.6723  -2.5617  -2.5049  -2.4958  -2.1281  -1.6067  -1.5995  -1.1849
    -1.1771  -0.9975  -0.9910  -0.5441   0.0823   0.0955   0.0965   0.8567
     1.1015   1.1040   1.2311   1.4085   1.4090   1.6775   1.9084   1.9105
     1.9914   2.9436   3.8298   3.8402   3.8449   4.0136   4.0164   4.3388
     6.5361   6.6949   7.0260   9.8942  10.2485  10.4112  10.6421  10.8984

     occupation numbers 
     1.0000   1.0000   1.0000   1.0000   1.0000   1.0000   1.0000   1.0000
     1.0000   1.0000   1.0000   1.0000   1.0000   1.0000   1.0000   1.0000
     1.0000   1.0000   1.0000   1.0000   1.0000   1.0000   1.0000   1.0000
     1.0000   1.0000   1.0000   1.0000   1.0000   1.0000   1.0000   1.0000
     1.0000   1.0000   1.0000   1.0000   1.0000   1.0000   1.0000   1.0000
     1.0000   1.0000   1.0000   1.0000   1.0000   1.0025   1.0382   1.0389
     1.0661   0.0011   0.0000   0.0000   0.0000   0.0000   0.0000   0.0000
     0.0000   0.0000   0.0000   0.0000   0.0000   0.0000   0.0000   0.0000

          k = 0.1667 0.4811 0.0000 ( 11356 PWs)   bands (ev):

   -93.4596 -93.4583 -93.4568 -56.7105 -56.7085 -56.7036 -56.6903 -56.6808
   -56.6682 -56.6545 -56.6542 -56.6486 -52.2502 -24.1683 -24.1681 -24.1185
   -15.9300 -15.5507 -15.2920 -14.9525 -14.9058 -14.9007  -3.4222  -2.9360
    -2.7691  -2.4171  -2.2988  -2.2712  -1.9896  -1.7779  -1.7725  -1.4382
    -1.3589  -1.2834  -0.6902  -0.3567  -0.3163   0.2183   0.5612   0.9205
     1.0535   1.2411   1.2577   1.3425   1.5458   1.7183   1.7691   1.9005
     1.9116   3.4466   3.6544   3.8062   3.8465   4.1009   4.2358   4.2957
     5.1785   6.4633   7.4704   8.7462   9.9471  10.2271  10.4124  11.6422

     occupation numbers 
     1.0000   1.0000   1.0000   1.0000   1.0000   1.0000   1.0000   1.0000
     1.0000   1.0000   1.0000   1.0000   1.0000   1.0000   1.0000   1.0000
     1.0000   1.0000   1.0000   1.0000   1.0000   1.0000   1.0000   1.0000
     1.0000   1.0000   1.0000   1.0000   1.0000   1.0000   1.0000   1.0000
     1.0000   1.0000   1.0000   1.0000   1.0000   1.0000   1.0000   1.0000
     1.0000   1.0000   1.0000   1.0000   1.0003   1.0045   1.0089   1.0358
     1.0392   0.0000   0.0000   0.0000   0.0000   0.0000   0.0000   0.0000
     0.0000   0.0000   0.0000   0.0000   0.0000   0.0000   0.0000   0.0000

          k = 0.1667 0.4811-0.2526 ( 11352 PWs)   bands (ev):

   -93.4596 -93.4583 -93.4568 -56.7105 -56.7085 -56.7036 -56.6903 -56.6809
   -56.6682 -56.6545 -56.6541 -56.6485 -52.2502 -24.1683 -24.1680 -24.1185
   -15.9300 -15.5507 -15.2920 -14.9525 -14.9058 -14.9007  -3.4222  -2.9361
    -2.7694  -2.4172  -2.2981  -2.2713  -1.9895  -1.7779  -1.7726  -1.4375
    -1.3582  -1.2831  -0.6903  -0.3567  -0.3163   0.2186   0.5608   0.9164
     1.0535   1.2413   1.2555   1.3425   1.5464   1.7181   1.7687   1.8994
     1.9168   3.3879   3.6482   3.8120   3.9279   4.1030   4.2293   4.2958
     5.1884   6.4614   7.3764   8.7236   9.9851  10.2177  10.7945  11.7682

     occupation numbers 
     1.0000   1.0000   1.0000   1.0000   1.0000   1.0000   1.0000   1.0000
     1.0000   1.0000   1.0000   1.0000   1.0000   1.0000   1.0000   1.0000
     1.0000   1.0000   1.0000   1.0000   1.0000   1.0000   1.0000   1.0000
     1.0000   1.0000   1.0000   1.0000   1.0000   1.0000   1.0000   1.0000
     1.0000   1.0000   1.0000   1.0000   1.0000   1.0000   1.0000   1.0000
     1.0000   1.0000   1.0000   1.0000   1.0003   1.0045   1.0088   1.0354
     1.0409   0.0000   0.0000   0.0000   0.0000   0.0000   0.0000   0.0000
     0.0000   0.0000   0.0000   0.0000   0.0000   0.0000   0.0000   0.0000

          k = 0.3333 0.5774 0.0000 ( 11370 PWs)   bands (ev):

   -93.4588 -93.4588 -93.4571 -56.7094 -56.7094 -56.7039 -56.6812 -56.6812
   -56.6808 -56.6513 -56.6513 -56.6510 -52.2502 -24.1683 -24.1683 -24.1185
   -15.6084 -15.6058 -15.6058 -14.9099 -14.9089 -14.9089  -3.0429  -3.0388
    -3.0388  -2.2967  -2.2841  -2.2841  -1.8608  -1.8608  -1.8583  -1.5426
    -1.5184  -1.5184  -0.3017  -0.3017  -0.2989   0.5751   0.5751   0.5859
     1.1827   1.1827   1.1832   1.5864   1.5864   1.5886   1.7859   1.7927
     1.7927   3.5443   3.5882   3.5882   4.3014   4.3014   4.3018   4.4700
[...]
     1.0000   1.0000   1.0000   1.0000   1.0000   1.0000   1.0000   1.0000
     1.0000   1.0000   1.0000   1.0000   1.0000   1.0000   1.0000   1.0000
     1.0000   1.0000   1.0000   1.0000   1.0000   1.0000   1.0000   1.0000
     1.0000   1.0000   1.0000   1.0000   1.0000   1.0000   1.0000   1.0000
     1.0038   1.0472   1.0479   1.0622   0.6733   0.5024   0.4751   0.1181
     0.1122   0.0000   0.0000   0.0000   0.0000   0.0000   0.0000   0.0000
     0.0000   0.0000   0.0000   0.0000   0.0000   0.0000   0.0000   0.0000

          k = 0.1667 0.2887 0.0000 ( 11373 PWs)   bands (ev):

   -92.6860 -92.6830 -92.6797 -55.9778 -55.9775 -55.9503 -55.9501 -55.9434
   -55.9331 -55.8673 -55.8623 -55.8580 -52.2571 -24.1779 -24.1778 -24.1262
   -16.1590 -15.1254 -15.1246 -14.8310 -14.8309 -14.8090  -3.0046  -3.0042
    -2.4005  -2.3531  -2.3439  -2.2991  -1.8858  -1.4280  -1.4205  -0.9285
    -0.9228  -0.7973  -0.7881  -0.3220   0.2708   0.2736   0.3911   1.0359
     1.8056   2.0044   2.0048   2.1218   2.1220   2.1279   2.4967   2.4987
     2.5519   2.9784   4.1457   4.1869   4.1987   4.3310   4.3348   4.6516
     6.4951   6.8098   6.8162   9.4088  10.0875  10.2444  10.6659  10.7502

     occupation numbers 
     1.0000   1.0000   1.0000   1.0000   1.0000   1.0000   1.0000   1.0000
     1.0000   1.0000   1.0000   1.0000   1.0000   1.0000   1.0000   1.0000
     1.0000   1.0000   1.0000   1.0000   1.0000   1.0000   1.0000   1.0000
     1.0000   1.0000   1.0000   1.0000   1.0000   1.0000   1.0000   1.0000
     1.0000   1.0000   1.0000   1.0000   1.0000   1.0000   1.0000   1.0000
     1.0138   1.0702   1.0703   1.0758   1.0758   1.0735   0.3180   0.3135
     0.2073   0.0006   0.0000   0.0000   0.0000   0.0000   0.0000   0.0000
     0.0000   0.0000   0.0000   0.0000   0.0000   0.0000   0.0000   0.0000

          k = 0.1667 0.2887-0.2526 ( 11348 PWs)   bands (ev):

   -92.6860 -92.6830 -92.6797 -55.9778 -55.9774 -55.9502 -55.9500 -55.9433
   -55.9331 -55.8674 -55.8622 -55.8580 -52.2571 -24.1778 -24.1776 -24.1262
   -16.1590 -15.1254 -15.1246 -14.8310 -14.8309 -14.8090  -3.0046  -3.0042
    -2.4001  -2.3531  -2.3439  -2.2980  -1.8858  -1.4281  -1.4206  -0.9283
    -0.9226  -0.7972  -0.7880  -0.3211   0.2709   0.2737   0.3912   1.0050
     1.8000   2.0044   2.0048   2.1219   2.1220   2.1279   2.4963   2.4983
     2.7034   2.8679   4.1789   4.1886   4.1994   4.3308   4.3343   4.6516
     6.4726   6.6439   6.8045   9.9450  10.2400  10.2652  10.7047  10.7544

     occupation numbers 
     1.0000   1.0000   1.0000   1.0000   1.0000   1.0000   1.0000   1.0000
     1.0000   1.0000   1.0000   1.0000   1.0000   1.0000   1.0000   1.0000
     1.0000   1.0000   1.0000   1.0000   1.0000   1.0000   1.0000   1.0000
     1.0000   1.0000   1.0000   1.0000   1.0000   1.0000   1.0000   1.0000
     1.0000   1.0000   1.0000   1.0000   1.0000   1.0000   1.0000   1.0000
     1.0130   1.0702   1.0703   1.0758   1.0758   1.0735   0.3189   0.3143
     0.0436   0.0041   0.0000   0.0000   0.0000   0.0000   0.0000   0.0000
     0.0000   0.0000   0.0000   0.0000   0.0000   0.0000   0.0000   0.0000

          k = 0.1667 0.4811 0.0000 ( 11356 PWs)   bands (ev):

   -92.6849 -92.6836 -92.6800 -55.9806 -55.9707 -55.9576 -55.9434 -55.9427
   -55.9370 -55.8656 -55.8634 -55.8587 -52.2571 -24.1780 -24.1778 -24.1262
   -15.8336 -15.4527 -15.1930 -14.8472 -14.8011 -14.7972  -3.2578  -2.7468
    -2.5522  -2.2676  -2.1486  -2.0546  -1.7569  -1.5667  -1.5634  -1.1396
    -1.1188  -0.9623  -0.4913  -0.2257  -0.0567   0.3880   0.7347   1.0937
     1.8150   1.8735   1.9364   2.0679   2.2936   2.2966   2.4272   2.5371
     2.6922   3.5302   3.9616   4.0217   4.2034   4.3985   4.5333   4.5928
     4.9902   6.2592   7.5063   8.8009   9.9775  10.0683  10.4735  11.7018

     occupation numbers 
     1.0000   1.0000   1.0000   1.0000   1.0000   1.0000   1.0000   1.0000
     1.0000   1.0000   1.0000   1.0000   1.0000   1.0000   1.0000   1.0000
     1.0000   1.0000   1.0000   1.0000   1.0000   1.0000   1.0000   1.0000
     1.0000   1.0000   1.0000   1.0000   1.0000   1.0000   1.0000   1.0000
     1.0000   1.0000   1.0000   1.0000   1.0000   1.0000   1.0000   1.0000
     1.0154   1.0281   1.0474   1.0830   0.8465   0.8394   0.4919   0.2341
     0.0499   0.0000   0.0000   0.0000   0.0000   0.0000   0.0000   0.0000
     0.0000   0.0000   0.0000   0.0000   0.0000   0.0000   0.0000   0.0000

          k = 0.1667 0.4811-0.2526 ( 11352 PWs)   bands (ev):

   -92.6849 -92.6836 -92.6800 -55.9806 -55.9708 -55.9575 -55.9434 -55.9427
   -55.9370 -55.8656 -55.8634 -55.8587 -52.2571 -24.1780 -24.1778 -24.1262
   -15.8335 -15.4527 -15.1930 -14.8472 -14.8011 -14.7973  -3.2578  -2.7470
    -2.5527  -2.2677  -2.1487  -2.0539  -1.7567  -1.5667  -1.5634  -1.1382
    -1.1179  -0.9619  -0.4913  -0.2257  -0.0567   0.3883   0.7341   1.0866
     1.8149   1.8715   1.9363   2.0679   2.2917   2.2962   2.4270   2.5367
     2.7077   3.4715   3.9993   4.0532   4.2014   4.4029   4.5291   4.5929
     5.0051   6.2591   7.4102   8.7748  10.0088  10.0606  10.8657  11.8223

     occupation numbers 
     1.0000   1.0000   1.0000   1.0000   1.0000   1.0000   1.0000   1.0000
     1.0000   1.0000   1.0000   1.0000   1.0000   1.0000   1.0000   1.0000
     1.0000   1.0000   1.0000   1.0000   1.0000   1.0000   1.0000   1.0000
     1.0000   1.0000   1.0000   1.0000   1.0000   1.0000   1.0000   1.0000
     1.0000   1.0000   1.0000   1.0000   1.0000   1.0000   1.0000   1.0000
     1.0154   1.0276   1.0473   1.0830   0.8509   0.8404   0.4924   0.2349
     0.0413   0.0000   0.0000   0.0000   0.0000   0.0000   0.0000   0.0000
     0.0000   0.0000   0.0000   0.0000   0.0000   0.0000   0.0000   0.0000

          k = 0.3333 0.5774 0.0000 ( 11370 PWs)   bands (ev):

   -92.6842 -92.6842 -92.6802 -55.9718 -55.9705 -55.9705 -55.9408 -55.9393
   -55.9393 -55.8643 -55.8643 -55.8591 -52.2571 -24.1780 -24.1780 -24.1263
   -15.5107 -15.5080 -15.5080 -14.8055 -14.8044 -14.8044  -2.8510  -2.8456
    -2.8456  -2.1598  -2.1460  -2.1460  -1.6433  -1.6433  -1.6406  -1.2246
    -1.1971  -1.1971  -0.0954  -0.0954  -0.0927   0.7529   0.7529   0.7647
     1.8318   1.8356   1.8356   2.2026   2.2029   2.2029   2.5631   2.5723
     2.5723   3.8926   3.9691   3.9691   4.3978   4.5953   4.5953   4.5955
     4.9463   4.9463   7.9917   8.8768   8.8768  11.2100  11.5955  11.5956

     occupation numbers 
     1.0000   1.0000   1.0000   1.0000   1.0000   1.0000   1.0000   1.0000
     1.0000   1.0000   1.0000   1.0000   1.0000   1.0000   1.0000   1.0000
     1.0000   1.0000   1.0000   1.0000   1.0000   1.0000   1.0000   1.0000
     1.0000   1.0000   1.0000   1.0000   1.0000   1.0000   1.0000   1.0000
     1.0000   1.0000   1.0000   1.0000   1.0000   1.0000   1.0000   1.0000
     1.0185   1.0193   1.0193   1.0118   1.0114   1.0114   0.1885   0.1737
     0.1737   0.0000   0.0000   0.0000   0.0000   0.0000   0.0000   0.0000
     0.0000   0.0000   0.0000   0.0000   0.0000   0.0000   0.0000   0.0000

          k = 0.3333 0.5774-0.2526 ( 11340 PWs)   bands (ev):

   -92.6842 -92.6842 -92.6802 -55.9718 -55.9705 -55.9705 -55.9407 -55.9393
   -55.9393 -55.8643 -55.8643 -55.8590 -52.2571 -24.1779 -24.1779 -24.1262
   -15.5107 -15.5080 -15.5080 -14.8055 -14.8044 -14.8044  -2.8512  -2.8457
    -2.8457  -2.1601  -2.1461  -2.1461  -1.6433  -1.6433  -1.6406  -1.2229
    -1.1962  -1.1962  -0.0953  -0.0953  -0.0926   0.7523   0.7523   0.7637
     1.8309   1.8351   1.8351   2.2026   2.2029   2.2029   2.5641   2.5730
     2.5730   3.8503   3.9537   3.9537   4.4521   4.5953   4.5953   4.5956
     4.9707   4.9707   7.9634   8.8384   8.8384  11.3038  11.7625  11.7627

     occupation numbers 
     1.0000   1.0000   1.0000   1.0000   1.0000   1.0000   1.0000   1.0000
     1.0000   1.0000   1.0000   1.0000   1.0000   1.0000   1.0000   1.0000
     1.0000   1.0000   1.0000   1.0000   1.0000   1.0000   1.0000   1.0000
     1.0000   1.0000   1.0000   1.0000   1.0000   1.0000   1.0000   1.0000
     1.0000   1.0000   1.0000   1.0000   1.0000   1.0000   1.0000   1.0000
     1.0183   1.0192   1.0192   1.0118   1.0114   1.0114   0.1867   0.1727
     0.1727   0.0000   0.0000   0.0000   0.0000   0.0000   0.0000   0.0000
     0.0000   0.0000   0.0000   0.0000   0.0000   0.0000   0.0000   0.0000

     the Fermi energy is     2.4621 ev

!    total energy              =   -1489.12919517 Ry
     total all-electron energy =     -9588.364003 Ry
     estimated scf accuracy    <       0.00000008 Ry
     smearing contrib. (-TS)   =       0.00561499 Ry
     internal energy E=F+TS    =   -1489.13481016 Ry

     The total energy is F=E-TS. E is the sum of the following terms:
     one-electron contribution =   -2396.85926443 Ry
     hartree contribution      =    1225.27978829 Ry
     xc contribution           =    -150.17013510 Ry
     ewald contribution        =     168.13324961 Ry
     one-center paw contrib.   =    -335.51844853 Ry
      -> PAW hartree energy AE =     880.86548055 Ry
      -> PAW hartree energy PS =    -878.59236831 Ry
      -> PAW xc energy AE      =    -479.86106868 Ry
      -> PAW xc energy PS      =     142.06950790 Ry
      -> total E_H with PAW    =    1227.55290053 Ry
      -> total E_XC with PAW   =    -487.96169588 Ry

     total magnetization       =     2.32 Bohr mag/cell
     absolute magnetization    =     2.54 Bohr mag/cell

     convergence has been achieved in  52 iterations

     Forces acting on atoms (cartesian axes, Ry/au):

     atom    1 type  1   force =     0.00000000    0.00000000    0.01010004
     atom    2 type  1   force =     0.00000000    0.00000000    0.00744677
     atom    3 type  1   force =     0.00000000    0.00000000    0.00744677
     atom    4 type  2   force =     0.00005567    0.00009642   -0.06300554
     atom    5 type  2   force =    -0.00011134    0.00000000   -0.06300554
     atom    6 type  2   force =     0.00005567   -0.00009642   -0.06300554
     atom    7 type  2   force =    -0.00226173    0.00000000    0.04656602
     atom    8 type  2   force =     0.00113086    0.00195871    0.04656602
     atom    9 type  2   force =     0.00113086   -0.00195871    0.04656602
     atom   10 type  3   force =     0.00000000    0.00000000    0.02432497
     The non-local contrib.  to forces
     atom    1 type  1   force =     0.00000000    0.00000000   -0.00062899
     atom    2 type  1   force =     0.00000000    0.00000000    0.01066064
     atom    3 type  1   force =     0.00000000    0.00000000    0.01066064
     atom    4 type  2   force =    -0.00035602   -0.00061664   -1.27509188
     atom    5 type  2   force =     0.00071203    0.00000000   -1.27509188
     atom    6 type  2   force =    -0.00035602    0.00061664   -1.27509188
     atom    7 type  2   force =    -0.01864422    0.00000000    1.14048423
     atom    8 type  2   force =     0.00932211    0.01614637    1.14048423
     atom    9 type  2   force =     0.00932211   -0.01614637    1.14048423
     atom   10 type  3   force =     0.00000000   -0.00000000   -0.13703085
     The ionic contribution  to forces
     atom    1 type  1   force =    -0.00000000   -0.00000000    4.06800420
     atom    2 type  1   force =     0.00000002   -0.00000001    3.61854463
     atom    3 type  1   force =    -0.00000002    0.00000001    3.61854463
     atom    4 type  2   force =     0.02158351    0.03738374   39.93013082
     atom    5 type  2   force =    -0.04316701   -0.00000000   39.93013082
     atom    6 type  2   force =     0.02158350   -0.03738373   39.93013082
     atom    7 type  2   force =     0.26010168    0.00000000  -37.28152201
     atom    8 type  2   force =    -0.13005084   -0.22525467  -37.28152200
     atom    9 type  2   force =    -0.13005084    0.22525466  -37.28152201
     atom   10 type  3   force =     0.00000000    0.00000000  -19.25091990
     The local contribution  to forces
     atom    1 type  1   force =     0.00000000    0.00000000   -4.05734345
     atom    2 type  1   force =     0.00000021   -0.00000012   -3.62187135
     atom    3 type  1   force =    -0.00000021    0.00000012   -3.62187135
     atom    4 type  2   force =    -0.02109679   -0.03654071  -38.72935755
     atom    5 type  2   force =     0.04219358    0.00000000  -38.72935755
     atom    6 type  2   force =    -0.02109679    0.03654071  -38.72935755
     atom    7 type  2   force =    -0.24373251    0.00000000   36.19754282
     atom    8 type  2   force =     0.12186625    0.21107854   36.19754282
     atom    9 type  2   force =     0.12186625   -0.21107854   36.19754282
     atom   10 type  3   force =     0.00000000    0.00000000   19.41209112
     The core correction contribution to forces
     atom    1 type  1   force =     0.00000000    0.00000000   -0.00002181
     atom    2 type  1   force =     0.00000000   -0.00000000   -0.00000919
     atom    3 type  1   force =    -0.00000000    0.00000000   -0.00000919
     atom    4 type  2   force =     0.00000007    0.00000013    0.01153798
     atom    5 type  2   force =    -0.00000015    0.00000000    0.01153798
     atom    6 type  2   force =     0.00000007   -0.00000013    0.01153798
     atom    7 type  2   force =     0.00017153   -0.00000000   -0.01020295
     atom    8 type  2   force =    -0.00008577   -0.00014855   -0.01020295
     atom    9 type  2   force =    -0.00008577    0.00014855   -0.01020295
     atom   10 type  3   force =     0.00000000    0.00000000    0.00005048
     The Hubbard contrib.    to forces
     atom    1 type  1   force =     0.00000000    0.00000000    0.00000000
     atom    2 type  1   force =     0.00000000    0.00000000    0.00000000
     atom    3 type  1   force =     0.00000000    0.00000000    0.00000000
     atom    4 type  2   force =     0.00000000    0.00000000    0.00000000
     atom    5 type  2   force =     0.00000000    0.00000000    0.00000000
     atom    6 type  2   force =     0.00000000    0.00000000    0.00000000
     atom    7 type  2   force =     0.00000000    0.00000000    0.00000000
     atom    8 type  2   force =     0.00000000    0.00000000    0.00000000
     atom    9 type  2   force =     0.00000000    0.00000000    0.00000000
     atom   10 type  3   force =     0.00000000    0.00000000    0.00000000
     The SCF correction term to forces
     atom    1 type  1   force =     0.00000000    0.00000000    0.00005499
     atom    2 type  1   force =     0.00000001   -0.00000000    0.00008693
     atom    3 type  1   force =    -0.00000001    0.00000000    0.00008693
     atom    4 type  2   force =    -0.00007511   -0.00013009   -0.00026004
     atom    5 type  2   force =     0.00015021   -0.00000000   -0.00026004
     atom    6 type  2   force =    -0.00007511    0.00013009   -0.00026004
     atom    7 type  2   force =    -0.00015821    0.00000000    0.00022882
     atom    8 type  2   force =     0.00007910    0.00013701    0.00022882
     atom    9 type  2   force =     0.00007911   -0.00013701    0.00022882
     atom   10 type  3   force =    -0.00000000   -0.00000000    0.00009901

     Total force =     0.138688     Total SCF correction =     0.000728

     Writing all to output data dir ./out/pw.save/ :
     XML data file, charge density, pseudopotentials, collected wavefunctions
 
     init_run     :     22.00s CPU      4.94s WALL (       1 calls)
     electrons    :    653.34s CPU    141.52s WALL (       1 calls)
     forces       :      1.10s CPU      0.76s WALL (       1 calls)

     Called by init_run:
     wfcinit      :      0.48s CPU      0.60s WALL (       1 calls)
     wfcinit:atom :      0.05s CPU      0.05s WALL (      28 calls)
     wfcinit:wfcr :      0.30s CPU      0.33s WALL (      28 calls)
     potinit      :     20.80s CPU      3.56s WALL (       1 calls)
     hinit0       :      0.56s CPU      0.55s WALL (       1 calls)

     Called by electrons:
     c_bands      :     49.10s CPU     49.17s WALL (      52 calls)
     sum_band     :     10.81s CPU     10.74s WALL (      52 calls)
     v_of_rho     :      1.41s CPU      0.84s WALL (      53 calls)
     v_h          :      0.86s CPU      0.23s WALL (      53 calls)
     v_xc         :      0.56s CPU      0.62s WALL (      54 calls)
     newd         :      1.27s CPU      1.09s WALL (      53 calls)
                                        1.09s GPU  (      53 calls)
     PAW_pot      :    593.42s CPU     76.36s WALL (      53 calls)
     mix_rho      :      3.66s CPU      3.52s WALL (      52 calls)

     Called by c_bands:
     init_us_2    :      1.90s CPU      1.83s WALL (    2968 calls)
     cegterg      :     37.41s CPU     37.56s WALL (    1456 calls)

     Called by sum_band:
     sum_band:wei :      0.08s CPU      0.08s WALL (      52 calls)
                                        0.08s GPU  (      52 calls)
     sum_band:loo :      7.54s CPU      7.44s WALL (      52 calls)
                                        7.44s GPU  (      52 calls)
     sum_band:buf :      2.55s CPU      2.61s WALL (    1456 calls)
                                        2.59s GPU  (    1456 calls)
     sum_band:ini :      0.96s CPU      0.94s WALL (    1456 calls)
                                        0.92s GPU  (    1456 calls)
     sum_band:cal :      0.22s CPU      0.29s WALL (    1456 calls)
                                        0.20s GPU  (    1456 calls)
     sum_band:bec :      0.73s CPU      0.75s WALL (    1456 calls)
                                        0.73s GPU  (    1456 calls)
     addusdens    :      2.07s CPU      2.08s WALL (      52 calls)
                                        2.08s GPU  (      52 calls)
     addusd:skk   :      0.02s CPU      0.02s WALL (     156 calls)
                                        0.02s GPU  (     156 calls)

     Called by *egterg:
     cdiaghg      :     13.70s CPU     13.86s WALL (    6184 calls)
                                       13.79s GPU  (    6184 calls)
     cegterg:over :      1.68s CPU      1.70s WALL (    4728 calls)
     cegterg:upda :      1.90s CPU      1.91s WALL (    4728 calls)
     cegterg:last :      0.39s CPU      0.39s WALL (    2603 calls)
     h_psi        :     16.12s CPU     16.27s WALL (    6212 calls)
                                       16.19s GPU  (    6212 calls)
     s_psi        :      1.93s CPU      1.97s WALL (    6212 calls)
     g_psi        :      0.03s CPU      0.24s WALL (    4728 calls)
                                        0.18s GPU  (    4728 calls)

     Called by h_psi:
     h_psi:calbec :      0.30s CPU      0.63s WALL (    6212 calls)
                                        0.55s GPU  (    6212 calls)
     vloc_psi     :     12.94s CPU     12.97s WALL (    6212 calls)
                                       12.89s GPU  (    6212 calls)
     add_vuspsi   :      1.84s CPU      2.19s WALL (    6212 calls)
                                        2.11s GPU  (    6212 calls)

     General routines
     calbec       :      0.42s CPU      0.44s WALL (    7780 calls)
     fft          :      8.70s CPU      1.41s WALL (    1338 calls)
                                        0.08s GPU  (    1232 calls)
     ffts         :      4.13s CPU      1.08s WALL (    3611 calls)
                                        0.11s GPU  (    3505 calls)
     fftw         :      0.61s CPU      8.75s WALL (   37476 calls)
                                        8.33s GPU  (   37476 calls)
     interpolate  :     13.53s CPU      2.50s WALL (     106 calls)
 
     Parallel routines

     PAW routines
     PAW_pot      :    593.42s CPU     76.36s WALL (      53 calls)
     PAW_symme    :      0.09s CPU      0.03s WALL (     105 calls)
 
     PWSCF        :  11m17.25s CPU   2m27.88s WALL

 
   This run was terminated on:   7:16: 5  12Jul2026            

=------------------------------------------------------------------------------=
   JOB DONE.
=------------------------------------------------------------------------------=
Warning: ieee_divide_by_zero is signaling
Warning: ieee_inexact is signaling
FORTRAN STOP
