
     Program PWSCF v.7.3.1 starts on 12Jul2026 at  3:20:31 

     This program is part of the open-source Quantum ESPRESSO suite
     for quantum simulation of materials; please cite
         "P. Giannozzi et al., J. Phys.:Condens. Matter 21 395502 (2009);
         "P. Giannozzi et al., J. Phys.:Condens. Matter 29 465901 (2017);
         "P. Giannozzi et al., J. Chem. Phys. 152 154105 (2020);
          URL http://www.quantum-espresso.org", 
     in publications or presentations arising from this work. More details at
     http://www.quantum-espresso.org/quote

     Parallel version (MPI & OpenMP), running on      14 processor cores
     Number of MPI processes:                 1
     Threads/MPI process:                    14

     MPI processes distributed on     1 nodes
     847796 MiB available memory on the printing compute node when the environment starts
 
     Reading input from pw.in

     Current dimensions of program PWSCF are:
     Max number of different atomic species (ntypx) = 10
     Max number of k-points (npk) =  40000
     Max angular momentum in pseudopotentials (lmaxx) =  4
     file Co.pbe-spn-kjpaw_psl.0.3.1.UPF: wavefunction(s)  3P 3D renormalized
     file O.pbe-n-kjpaw_psl.1.0.0.UPF: wavefunction(s)  2S 2P renormalized
 
     Subspace diagonalization in iterative solution of the eigenvalue problem:
     a serial algorithm will be used

 
     G-vector sticks info
     --------------------
     sticks:   dense  smooth     PW     G-vecs:    dense   smooth      PW
     Sum         931     475    139                69237    24541    3997
 
     Using Slab Decomposition
 


     bravais-lattice index     =            4
     lattice parameter (alat)  =       5.3290  a.u.
     unit-cell volume          =     390.3954 (a.u.)^3
     number of atoms/cell      =            4
     number of atomic types    =            3
     number of electrons       =        32.00
     number of Kohn-Sham states=           24
     kinetic-energy cutoff     =      60.0000  Ry
     charge density cutoff     =     480.0000  Ry
     scf convergence threshold =      1.0E-07
     mixing beta               =       0.3000
     number of iterations used =            8  local-TF  mixing
     Exchange-correlation= SLA  PW   PBX  PBC
                           (   1   4   3   4   0   0   0)

     GPU acceleration is ACTIVE.  1 visible GPUs per MPI rank
     GPU-aware MPI enabled


     GPU used by master process:

        Device Number: 0
        Device name: NVIDIA A100-SXM4-80GB
        Compute capability : 80
        Ratio of single to double precision performance  : 2
        Memory Clock Rate (KHz): 1593000
        Memory Bus Width (bits): 5120
        Peak Memory Bandwidth (GB/s): ******

     celldm(1)=   5.329028  celldm(2)=   0.000000  celldm(3)=   2.978723
     celldm(4)=   0.000000  celldm(5)=   0.000000  celldm(6)=   0.000000

     crystal axes: (cart. coord. in units of alat)
               a(1) = (   1.000000   0.000000   0.000000 )  
               a(2) = (  -0.500000   0.866025   0.000000 )  
               a(3) = (   0.000000   0.000000   2.978723 )  

     reciprocal axes: (cart. coord. in units 2 pi/alat)
               b(1) = (  1.000000  0.577350 -0.000000 )  
               b(2) = (  0.000000  1.154701  0.000000 )  
               b(3) = (  0.000000 -0.000000  0.335714 )  


     PseudoPot. # 1 for Co read from file:
     ../../pseudo/Co.pbe-spn-kjpaw_psl.0.3.1.UPF
     MD5 check sum: 3c0a43779828c046024e4f3be63f8e67
     Pseudo is Projector augmented-wave + core cor, Zval = 17.0
     Generated using &quot;atomic&quot; code by A. Dal Corso  v.6.2.2
     Shape of augmentation charge: PSQ
     Using radial grid of 1193 points,  6 beta functions with: 
                l(1) =   0
                l(2) =   0
                l(3) =   1
                l(4) =   1
                l(5) =   2
                l(6) =   2
     Q(r) pseudized with 0 coefficients 


     PseudoPot. # 2 for O  read from file:
     ../../pseudo/O.pbe-n-kjpaw_psl.1.0.0.UPF
     MD5 check sum: e99d9cef9b487d1ca56f5b95ecd0fd7a
     Pseudo is Projector augmented-wave + core cor, Zval =  6.0
     Generated using &quot;atomic&quot; code by A. Dal Corso  v.6.3
     Shape of augmentation charge: PSQ
     Using radial grid of 1095 points,  4 beta functions with: 
                l(1) =   0
                l(2) =   0
                l(3) =   1
                l(4) =   1
     Q(r) pseudized with 0 coefficients 


     PseudoPot. # 3 for Li read from file:
     ../../pseudo/Li.pbe-s-kjpaw_psl.1.0.0.UPF
     MD5 check sum: 3974953fb0fea6c4f83fb01d64ffc134
     Pseudo is Projector augmented-wave, Zval =  3.0
     Generated using &quot;atomic&quot; code by A. Dal Corso  v.6.3
     Shape of augmentation charge: PSQ
     Using radial grid of 1017 points,  4 beta functions with: 
                l(1) =   0
                l(2) =   0
                l(3) =   1
                l(4) =   1
     Q(r) pseudized with 0 coefficients 


     atomic species   valence    mass     pseudopotential
     Co               17.00    58.93300     Co( 1.00)
     O                 6.00    15.99900     O ( 1.00)
     Li                3.00     6.94100     Li( 1.00)

     Starting magnetic structure 
     atomic species   magnetization
     Co              0.300
     O               0.000
     Li              0.000

      6 Sym. Ops. (no inversion) found


                                    s                        frac. trans.

      isym =  1     identity                                     

 cryst.   s( 1) = (     1          0          0      )
                  (     0          1          0      )
                  (     0          0          1      )

 cart.    s( 1) = (  1.0000000  0.0000000  0.0000000 )
                  (  0.0000000  1.0000000  0.0000000 )
                  (  0.0000000  0.0000000  1.0000000 )


      isym =  2     120 deg rotation - cryst. axis [0,0,1]       

 cryst.   s( 2) = (     0          1          0      )
                  (    -1         -1          0      )
                  (     0          0          1      )

 cart.    s( 2) = ( -0.5000000 -0.8660254  0.0000000 )
                  (  0.8660254 -0.5000000  0.0000000 )
                  (  0.0000000  0.0000000  1.0000000 )


      isym =  3     120 deg rotation - cryst. axis [0,0,-1]      

 cryst.   s( 3) = (    -1         -1          0      )
                  (     1          0          0      )
                  (     0          0          1      )

 cart.    s( 3) = ( -0.5000000  0.8660254  0.0000000 )
                  ( -0.8660254 -0.5000000  0.0000000 )
                  (  0.0000000  0.0000000  1.0000000 )


      isym =  4     inv. 180 deg rotation - cart. axis [1,0,0]   

 cryst.   s( 4) = (    -1          0          0      )
                  (     1          1          0      )
                  (     0          0          1      )

 cart.    s( 4) = ( -1.0000000  0.0000000  0.0000000 )
                  (  0.0000000  1.0000000  0.0000000 )
                  (  0.0000000  0.0000000  1.0000000 )


      isym =  5     inv. 180 deg rotation - cryst. axis [0,1,0]  

 cryst.   s( 5) = (     1          1          0      )
                  (     0         -1          0      )
                  (     0          0          1      )

 cart.    s( 5) = (  0.5000000  0.8660254  0.0000000 )
                  (  0.8660254 -0.5000000  0.0000000 )
                  (  0.0000000  0.0000000  1.0000000 )


      isym =  6     inv. 180 deg rotation - cryst. axis [1,1,0]  

 cryst.   s( 6) = (     0         -1          0      )
                  (    -1          0          0      )
                  (     0          0          1      )

 cart.    s( 6) = (  0.5000000 -0.8660254  0.0000000 )
                  ( -0.8660254 -0.5000000  0.0000000 )
                  (  0.0000000  0.0000000  1.0000000 )


     point group C_3v (3m)  
     there are  3 classes
     the character table:

       E     2C3   3s_v 
A_1    1.00  1.00  1.00
A_2    1.00  1.00 -1.00
E      2.00 -1.00  0.00

     the symmetry operations in each class and the name of the first element:

     E        1
          identity                                               
     2C3      2    3
          120 deg rotation - cryst. axis [0,0,1]                 
     3s_v     4    5    6
          inv. 180 deg rotation - cart. axis [1,0,0]             

   Cartesian axes

     site n.     atom                  positions (alat units)
         1        Co     tau(   1) = (   0.0000000   0.0000000   0.0000000  )
         2        O      tau(   2) = (  -0.0000000   0.5773503   0.3404255  )
         3        O      tau(   3) = (   0.5000000   0.2886751   2.6382979  )
         4        Li     tau(   4) = (   0.0000000   0.0000000   1.5957447  )

   Crystallographic axes

     site n.     atom                  positions (cryst. coord.)
         1        Co     tau(   1) = (  0.0000000  0.0000000  0.0000000  )
         2        O      tau(   2) = (  0.3333333  0.6666667  0.1142857  )
         3        O      tau(   3) = (  0.6666667  0.3333333  0.8857143  )
         4        Li     tau(   4) = (  0.0000000  0.0000000  0.5357143  )

     number of k points=    25  Marzari-Vanderbilt smearing, width (Ry)=  0.0200
                       cart. coord. in units 2pi/alat
        k(    1) = (   0.0000000   0.0000000   0.0000000), wk =   0.0052083
        k(    2) = (   0.0000000   0.0000000   0.1119048), wk =   0.0104167
        k(    3) = (   0.0000000   0.1443376   0.0000000), wk =   0.0312500
        k(    4) = (   0.0000000   0.1443376   0.1119048), wk =   0.0312500
        k(    5) = (   0.0000000   0.2886751   0.0000000), wk =   0.0312500
        k(    6) = (   0.0000000   0.2886751   0.1119048), wk =   0.0312500
        k(    7) = (   0.0000000   0.4330127   0.0000000), wk =   0.0312500
        k(    8) = (   0.0000000   0.4330127   0.1119048), wk =   0.0312500
        k(    9) = (   0.0000000  -0.5773503   0.0000000), wk =   0.0156250
        k(   10) = (   0.0000000  -0.5773503   0.1119048), wk =   0.0312500
        k(   11) = (   0.1250000   0.2165064   0.0000000), wk =   0.0312500
        k(   12) = (   0.1250000   0.2165064   0.1119048), wk =   0.0625000
        k(   13) = (   0.1250000   0.3608439   0.0000000), wk =   0.0625000
        k(   14) = (   0.1250000   0.3608439   0.1119048), wk =   0.0625000
        k(   15) = (   0.1250000   0.5051815   0.0000000), wk =   0.0625000
        k(   16) = (   0.1250000   0.5051815   0.1119048), wk =   0.0625000
        k(   17) = (   0.2500000   0.4330127   0.0000000), wk =   0.0312500
        k(   18) = (   0.2500000   0.4330127   0.1119048), wk =   0.0625000
        k(   19) = (   0.2500000   0.5773503   0.0000000), wk =   0.0312500
        k(   20) = (   0.2500000   0.5773503   0.1119048), wk =   0.0625000
        k(   21) = (   0.0000000  -0.1443376   0.1119048), wk =   0.0312500
        k(   22) = (   0.0000000  -0.2886751   0.1119048), wk =   0.0312500
        k(   23) = (   0.0000000  -0.4330127   0.1119048), wk =   0.0312500
        k(   24) = (  -0.1250000  -0.3608439   0.1119048), wk =   0.0625000
        k(   25) = (  -0.1250000  -0.5051815   0.1119048), wk =   0.0625000

                       cryst. coord.
        k(    1) = (   0.0000000   0.0000000   0.0000000), wk =   0.0052083
        k(    2) = (   0.0000000   0.0000000   0.3333333), wk =   0.0104167
        k(    3) = (   0.0000000   0.1250000   0.0000000), wk =   0.0312500
        k(    4) = (   0.0000000   0.1250000   0.3333333), wk =   0.0312500
        k(    5) = (   0.0000000   0.2500000   0.0000000), wk =   0.0312500
        k(    6) = (   0.0000000   0.2500000   0.3333333), wk =   0.0312500
        k(    7) = (   0.0000000   0.3750000   0.0000000), wk =   0.0312500
        k(    8) = (   0.0000000   0.3750000   0.3333333), wk =   0.0312500
        k(    9) = (   0.0000000  -0.5000000   0.0000000), wk =   0.0156250
        k(   10) = (   0.0000000  -0.5000000   0.3333333), wk =   0.0312500
        k(   11) = (   0.1250000   0.1250000   0.0000000), wk =   0.0312500
        k(   12) = (   0.1250000   0.1250000   0.3333333), wk =   0.0625000
        k(   13) = (   0.1250000   0.2500000   0.0000000), wk =   0.0625000
        k(   14) = (   0.1250000   0.2500000   0.3333333), wk =   0.0625000
        k(   15) = (   0.1250000   0.3750000   0.0000000), wk =   0.0625000
        k(   16) = (   0.1250000   0.3750000   0.3333333), wk =   0.0625000
        k(   17) = (   0.2500000   0.2500000   0.0000000), wk =   0.0312500
        k(   18) = (   0.2500000   0.2500000   0.3333333), wk =   0.0625000
        k(   19) = (   0.2500000   0.3750000   0.0000000), wk =   0.0312500
        k(   20) = (   0.2500000   0.3750000   0.3333333), wk =   0.0625000
        k(   21) = (   0.0000000  -0.1250000   0.3333333), wk =   0.0312500
        k(   22) = (   0.0000000  -0.2500000   0.3333333), wk =   0.0312500
        k(   23) = (   0.0000000  -0.3750000   0.3333333), wk =   0.0312500
        k(   24) = (  -0.1250000  -0.2500000   0.3333333), wk =   0.0625000
        k(   25) = (  -0.1250000  -0.3750000   0.3333333), wk =   0.0625000

     Dense  grid:    69237 G-vectors     FFT dimensions: (  40,  40, 120)

     Smooth grid:    24541 G-vectors     FFT dimensions: (  27,  27,  80)

     Dynamical RAM for                 wfc:       1.12 MB

     Dynamical RAM for     wfc (w. buffer):      57.23 MB

     Dynamical RAM for           str. fact:       3.17 MB

     Dynamical RAM for           local pot:       0.00 MB

     Dynamical RAM for          nlocal pot:       1.96 MB

     Dynamical RAM for                qrad:       5.27 MB

     Dynamical RAM for          rho,v,vnew:      15.13 MB

     Dynamical RAM for               rhoin:       5.04 MB

     Dynamical RAM for            rho*nmix:      33.81 MB

     Dynamical RAM for           G-vectors:       4.15 MB

     Dynamical RAM for          h,s,v(r/c):       0.11 MB

     Dynamical RAM for          <psi|beta>:       0.02 MB

     Dynamical RAM for                 psi:       2.24 MB

     Dynamical RAM for                hpsi:       2.24 MB

     Dynamical RAM for                spsi:       2.24 MB

     Dynamical RAM for      wfcinit/wfcrot:       2.26 MB

     Dynamical RAM for           addusdens:     199.67 MB

     Dynamical RAM for          addusforce:     201.80 MB

     Estimated static dynamical RAM per process >     104.97 MB

     Estimated max dynamical RAM per process >     340.57 MB

     Check: negative core charge=   -0.000007
     Generating pointlists ...
     new r_m :   0.2765 (alat units)  1.4733 (a.u.) for type    1
     new r_m :   0.2765 (alat units)  1.4733 (a.u.) for type    2
     new r_m :   0.4125 (alat units)  2.1982 (a.u.) for type    3

     Initial potential from superposition of free atoms

     starting charge      31.9951, renormalised to      32.0000
     Starting wfcs are   23 randomized atomic wfcs +    1 random wfcs
     Checking if some PAW data can be deallocated... 

     total cpu time spent up to now is        3.7 secs

     Self-consistent Calculation
[tb_dev] Currently allocated     6.36E-01 Mbytes, locked:    0 /   6
[tb_pin] Currently allocated     0.00E+00 Mbytes, locked:    0 /   0

     iteration #  1     ecut=    60.00 Ry     beta= 0.30
     Davidson diagonalization with overlap

---- Real-time Memory Report at c_bands before calling an iterative solver
           674 MiB given to the printing process from OS
             0 MiB allocation reported by mallinfo(arena+hblkhd)
        847354 MiB available memory on the node where the printing process lives
     GPU memory used/free/total (MiB): 1046 / 80104 / 81151
------------------
     ethr =  1.00E-02,  avg # of iterations =  8.4

     total cpu time spent up to now is        5.6 secs

     total energy              =    -474.70936209 Ry
     estimated scf accuracy    <       1.76358048 Ry

     total magnetization       =     4.36 Bohr mag/cell
     absolute magnetization    =     4.40 Bohr mag/cell
[tb_dev] Currently allocated     3.05E-05 Mbytes, locked:    0 /   2
[tb_pin] Currently allocated     0.00E+00 Mbytes, locked:    0 /   0

     iteration #  2     ecut=    60.00 Ry     beta= 0.30
     Davidson diagonalization with overlap

---- Real-time Memory Report at c_bands before calling an iterative solver
           718 MiB given to the printing process from OS
             0 MiB allocation reported by mallinfo(arena+hblkhd)
        847135 MiB available memory on the node where the printing process lives
     GPU memory used/free/total (MiB): 1066 / 80084 / 81151
------------------
     ethr =  5.51E-03,  avg # of iterations =  1.8

     total cpu time spent up to now is        6.7 secs

     total energy              =    -474.79724040 Ry
     estimated scf accuracy    <       0.78633118 Ry

     total magnetization       =     3.40 Bohr mag/cell
     absolute magnetization    =     3.41 Bohr mag/cell
[tb_dev] Currently allocated     3.05E-05 Mbytes, locked:    0 /   2
[tb_pin] Currently allocated     0.00E+00 Mbytes, locked:    0 /   0

     iteration #  3     ecut=    60.00 Ry     beta= 0.30
     Davidson diagonalization with overlap

---- Real-time Memory Report at c_bands before calling an iterative solver
           720 MiB given to the printing process from OS
             0 MiB allocation reported by mallinfo(arena+hblkhd)
        847012 MiB available memory on the node where the printing process lives
     GPU memory used/free/total (MiB): 1066 / 80084 / 81151
------------------
     ethr =  2.46E-03,  avg # of iterations =  1.9

     total cpu time spent up to now is        7.8 secs

     total energy              =    -474.88112033 Ry
     estimated scf accuracy    <       0.45232108 Ry

     total magnetization       =     2.19 Bohr mag/cell
     absolute magnetization    =     2.22 Bohr mag/cell
[tb_dev] Currently allocated     3.05E-05 Mbytes, locked:    0 /   2
[tb_pin] Currently allocated     0.00E+00 Mbytes, locked:    0 /   0

     iteration #  4     ecut=    60.00 Ry     beta= 0.30
     Davidson diagonalization with overlap

---- Real-time Memory Report at c_bands before calling an iterative solver
           721 MiB given to the printing process from OS
             0 MiB allocation reported by mallinfo(arena+hblkhd)
        846929 MiB available memory on the node where the printing process lives
     GPU memory used/free/total (MiB): 1066 / 80084 / 81151
------------------
     ethr =  1.41E-03,  avg # of iterations =  1.5

     total cpu time spent up to now is        8.9 secs

     total energy              =    -474.91717497 Ry
     estimated scf accuracy    <       0.14916287 Ry

     total magnetization       =     1.91 Bohr mag/cell
     absolute magnetization    =     2.04 Bohr mag/cell
[tb_dev] Currently allocated     3.05E-05 Mbytes, locked:    0 /   2
[tb_pin] Currently allocated     0.00E+00 Mbytes, locked:    0 /   0

     iteration #  5     ecut=    60.00 Ry     beta= 0.30
     Davidson diagonalization with overlap

---- Real-time Memory Report at c_bands before calling an iterative solver
           722 MiB given to the printing process from OS
             0 MiB allocation reported by mallinfo(arena+hblkhd)
        846917 MiB available memory on the node where the printing process lives
     GPU memory used/free/total (MiB): 1066 / 80084 / 81151
------------------
     ethr =  4.66E-04,  avg # of iterations =  2.4

     total cpu time spent up to now is       10.0 secs

     total energy              =    -474.98147069 Ry
     estimated scf accuracy    <       0.09534337 Ry

     total magnetization       =     0.65 Bohr mag/cell
     absolute magnetization    =     0.99 Bohr mag/cell
[tb_dev] Currently allocated     3.05E-05 Mbytes, locked:    0 /   2
[tb_pin] Currently allocated     0.00E+00 Mbytes, locked:    0 /   0

     iteration #  6     ecut=    60.00 Ry     beta= 0.30
     Davidson diagonalization with overlap

---- Real-time Memory Report at c_bands before calling an iterative solver
           724 MiB given to the printing process from OS
             0 MiB allocation reported by mallinfo(arena+hblkhd)
        846918 MiB available memory on the node where the printing process lives
     GPU memory used/free/total (MiB): 1066 / 80084 / 81151
------------------
     ethr =  2.98E-04,  avg # of iterations =  3.5

     total cpu time spent up to now is       11.3 secs

     total energy              =    -474.99384447 Ry
     estimated scf accuracy    <       0.00757446 Ry

     total magnetization       =     0.58 Bohr mag/cell
     absolute magnetization    =     0.74 Bohr mag/cell
[tb_dev] Currently allocated     3.05E-05 Mbytes, locked:    0 /   2
[tb_pin] Currently allocated     0.00E+00 Mbytes, locked:    0 /   0

     iteration #  7     ecut=    60.00 Ry     beta= 0.30
     Davidson diagonalization with overlap

---- Real-time Memory Report at c_bands before calling an iterative solver
           725 MiB given to the printing process from OS
             0 MiB allocation reported by mallinfo(arena+hblkhd)
        846907 MiB available memory on the node where the printing process lives
     GPU memory used/free/total (MiB): 1066 / 80084 / 81151
------------------
     c_bands:  1 eigenvalues not converged
     c_bands:  1 eigenvalues not converged
     ethr =  2.37E-05,  avg # of iterations = 10.6

     total cpu time spent up to now is       13.5 secs

     total energy              =    -474.99588791 Ry
     estimated scf accuracy    <       0.00760032 Ry

     total magnetization       =     0.63 Bohr mag/cell
     absolute magnetization    =     0.74 Bohr mag/cell
[tb_dev] Currently allocated     3.05E-05 Mbytes, locked:    0 /   2
[tb_pin] Currently allocated     0.00E+00 Mbytes, locked:    0 /   0

     iteration #  8     ecut=    60.00 Ry     beta= 0.30
     Davidson diagonalization with overlap

---- Real-time Memory Report at c_bands before calling an iterative solver
           731 MiB given to the printing process from OS
             0 MiB allocation reported by mallinfo(arena+hblkhd)
        846864 MiB available memory on the node where the printing process lives
     GPU memory used/free/total (MiB): 1066 / 80084 / 81151
------------------
     ethr =  2.37E-05,  avg # of iterations =  1.7

     total cpu time spent up to now is       14.6 secs

     total energy              =    -474.99770071 Ry
     estimated scf accuracy    <       0.00120552 Ry

     total magnetization       =     0.56 Bohr mag/cell
     absolute magnetization    =     0.65 Bohr mag/cell
[tb_dev] Currently allocated     3.05E-05 Mbytes, locked:    0 /   2
[tb_pin] Currently allocated     0.00E+00 Mbytes, locked:    0 /   0

     iteration #  9     ecut=    60.00 Ry     beta= 0.30
     Davidson diagonalization with overlap

---- Real-time Memory Report at c_bands before calling an iterative solver
           734 MiB given to the printing process from OS
             0 MiB allocation reported by mallinfo(arena+hblkhd)
        846862 MiB available memory on the node where the printing process lives
     GPU memory used/free/total (MiB): 1066 / 80084 / 81151
------------------
     ethr =  3.77E-06,  avg # of iterations =  5.0

     total cpu time spent up to now is       16.1 secs

     total energy              =    -474.99846590 Ry
     estimated scf accuracy    <       0.00036476 Ry

     total magnetization       =     0.65 Bohr mag/cell
     absolute magnetization    =     0.74 Bohr mag/cell
[tb_dev] Currently allocated     3.05E-05 Mbytes, locked:    0 /   2
[tb_pin] Currently allocated     0.00E+00 Mbytes, locked:    0 /   0

     iteration # 10     ecut=    60.00 Ry     beta= 0.30
     Davidson diagonalization with overlap

---- Real-time Memory Report at c_bands before calling an iterative solver
           736 MiB given to the printing process from OS
             0 MiB allocation reported by mallinfo(arena+hblkhd)
        846854 MiB available memory on the node where the printing process lives
     GPU memory used/free/total (MiB): 1066 / 80084 / 81151
------------------
     ethr =  1.14E-06,  avg # of iterations =  4.1

     total cpu time spent up to now is       17.5 secs

     total energy              =    -474.99852540 Ry
     estimated scf accuracy    <       0.00106916 Ry

     total magnetization       =     0.67 Bohr mag/cell
     absolute magnetization    =     0.77 Bohr mag/cell
[tb_dev] Currently allocated     3.05E-05 Mbytes, locked:    0 /   2
[tb_pin] Currently allocated     0.00E+00 Mbytes, locked:    0 /   0

     iteration # 11     ecut=    60.00 Ry     beta= 0.30
     Davidson diagonalization with overlap

---- Real-time Memory Report at c_bands before calling an iterative solver
           736 MiB given to the printing process from OS
             0 MiB allocation reported by mallinfo(arena+hblkhd)
        847209 MiB available memory on the node where the printing process lives
     GPU memory used/free/total (MiB): 1066 / 80084 / 81151
------------------
     ethr =  1.14E-06,  avg # of iterations =  1.7

     total cpu time spent up to now is       18.6 secs

     total energy              =    -474.99869045 Ry
     estimated scf accuracy    <       0.00005036 Ry

     total magnetization       =     0.64 Bohr mag/cell
     absolute magnetization    =     0.75 Bohr mag/cell
[tb_dev] Currently allocated     3.05E-05 Mbytes, locked:    0 /   2
[tb_pin] Currently allocated     0.00E+00 Mbytes, locked:    0 /   0

     iteration # 12     ecut=    60.00 Ry     beta= 0.30
     Davidson diagonalization with overlap

---- Real-time Memory Report at c_bands before calling an iterative solver
           736 MiB given to the printing process from OS
             0 MiB allocation reported by mallinfo(arena+hblkhd)
        847001 MiB available memory on the node where the printing process lives
     GPU memory used/free/total (MiB): 1066 / 80084 / 81151
------------------
     ethr =  1.57E-07,  avg # of iterations =  5.6

     total cpu time spent up to now is       20.2 secs

     total energy              =    -474.99873391 Ry
     estimated scf accuracy    <       0.00005523 Ry

     total magnetization       =     0.64 Bohr mag/cell
     absolute magnetization    =     0.76 Bohr mag/cell
[tb_dev] Currently allocated     3.05E-05 Mbytes, locked:    0 /   2
[tb_pin] Currently allocated     0.00E+00 Mbytes, locked:    0 /   0

     iteration # 13     ecut=    60.00 Ry     beta= 0.30
     Davidson diagonalization with overlap

---- Real-time Memory Report at c_bands before calling an iterative solver
           736 MiB given to the printing process from OS
             0 MiB allocation reported by mallinfo(arena+hblkhd)
        847000 MiB available memory on the node where the printing process lives
     GPU memory used/free/total (MiB): 1066 / 80084 / 81151
------------------
     ethr =  1.57E-07,  avg # of iterations =  1.4

     total cpu time spent up to now is       21.3 secs

     total energy              =    -474.99874118 Ry
     estimated scf accuracy    <       0.00000474 Ry

     total magnetization       =     0.64 Bohr mag/cell
     absolute magnetization    =     0.76 Bohr mag/cell
[tb_dev] Currently allocated     3.05E-05 Mbytes, locked:    0 /   2
[tb_pin] Currently allocated     0.00E+00 Mbytes, locked:    0 /   0

     iteration # 14     ecut=    60.00 Ry     beta= 0.30
     Davidson diagonalization with overlap

---- Real-time Memory Report at c_bands before calling an iterative solver
           736 MiB given to the printing process from OS
             0 MiB allocation reported by mallinfo(arena+hblkhd)
        846834 MiB available memory on the node where the printing process lives
     GPU memory used/free/total (MiB): 1066 / 80084 / 81151
------------------
     ethr =  1.48E-08,  avg # of iterations =  6.6

     total cpu time spent up to now is       23.0 secs

     total energy              =    -474.99874580 Ry
     estimated scf accuracy    <       0.00000331 Ry

     total magnetization       =     0.64 Bohr mag/cell
     absolute magnetization    =     0.76 Bohr mag/cell
[tb_dev] Currently allocated     3.05E-05 Mbytes, locked:    0 /   2
[tb_pin] Currently allocated     0.00E+00 Mbytes, locked:    0 /   0

     iteration # 15     ecut=    60.00 Ry     beta= 0.30
     Davidson diagonalization with overlap

---- Real-time Memory Report at c_bands before calling an iterative solver
           736 MiB given to the printing process from OS
             0 MiB allocation reported by mallinfo(arena+hblkhd)
        846757 MiB available memory on the node where the printing process lives
     GPU memory used/free/total (MiB): 1066 / 80084 / 81151
------------------
     ethr =  1.04E-08,  avg # of iterations =  1.8

     total cpu time spent up to now is       24.1 secs

     total energy              =    -474.99874642 Ry
     estimated scf accuracy    <       0.00000047 Ry

     total magnetization       =     0.64 Bohr mag/cell
     absolute magnetization    =     0.77 Bohr mag/cell
[tb_dev] Currently allocated     3.05E-05 Mbytes, locked:    0 /   2
[tb_pin] Currently allocated     0.00E+00 Mbytes, locked:    0 /   0

     iteration # 16     ecut=    60.00 Ry     beta= 0.30
     Davidson diagonalization with overlap

---- Real-time Memory Report at c_bands before calling an iterative solver
           736 MiB given to the printing process from OS
             0 MiB allocation reported by mallinfo(arena+hblkhd)
        846765 MiB available memory on the node where the printing process lives
     GPU memory used/free/total (MiB): 1066 / 80084 / 81151
------------------
     ethr =  1.48E-09,  avg # of iterations =  4.4
 
     Magnetic moment per site  (integrated on atomic sphere of radius R)
     atom   1 (R=0.276)  charge= 14.0206  magn=  0.5253
     atom   2 (R=0.276)  charge=  5.1594  magn=  0.0621
     atom   3 (R=0.276)  charge=  5.1692  magn=  0.0558
     atom   4 (R=0.413)  charge=  2.3191  magn= -0.0291

     total cpu time spent up to now is       25.5 secs

     End of self-consistent calculation

 ------ SPIN UP ------------


          k = 0.0000 0.0000 0.0000 (  3123 PWs)   bands (ev):

   -91.5079 -54.7535 -54.7052 -54.7052 -42.9484 -15.3596 -13.3161  -1.6205
    -1.0197  -1.0197   1.9403   2.6696   2.6696   2.8283   2.8818   2.8818
     4.1963   6.8384   6.8384   6.8586  11.5280  14.4588  15.9278  20.0075

     occupation numbers 
     1.0000   1.0000   1.0000   1.0000   1.0000   1.0000   1.0000   1.0000
     1.0000   1.0000   1.0000   1.0000   1.0000   1.0000   1.0000   1.0000
     0.9260   0.0000   0.0000   0.0000   0.0000   0.0000   0.0000   0.0000

          k = 0.0000 0.0000 0.1119 (  3075 PWs)   bands (ev):

   -91.5079 -54.7533 -54.7050 -54.7050 -42.9482 -15.3596 -13.3161  -1.6085
    -1.0197  -1.0197   1.6958   2.6696   2.6696   2.8819   2.8819   3.2932
     4.0616   6.6181   6.8385   6.8385  12.2292  13.7040  15.8972  20.0105

     occupation numbers 
     1.0000   1.0000   1.0000   1.0000   1.0000   1.0000   1.0000   1.0000
     1.0000   1.0000   1.0000   1.0000   1.0000   1.0000   1.0000   1.0000
     1.0760   0.0000   0.0000   0.0000   0.0000   0.0000   0.0000   0.0000

          k = 0.0000 0.1443 0.0000 (  3099 PWs)   bands (ev):

   -91.5068 -54.7519 -54.7159 -54.7076 -42.9441 -15.1687 -13.3186  -1.4087
    -1.2159  -0.8988   1.5723   1.9903   2.3374   3.0447   3.1647   3.4566
     4.2886   6.2663   6.7326   7.2869  12.0571  15.1063  16.1089  18.3065

     occupation numbers 
     1.0000   1.0000   1.0000   1.0000   1.0000   1.0000   1.0000   1.0000
     1.0000   1.0000   1.0000   1.0000   1.0000   1.0000   1.0000   1.0001
     0.7079   0.0000   0.0000   0.0000   0.0000   0.0000   0.0000   0.0000

          k = 0.0000 0.1443 0.1119 (  3086 PWs)   bands (ev):

   -91.5068 -54.7518 -54.7158 -54.7076 -42.9441 -15.1687 -13.3186  -1.3992
    -1.2166  -0.8988   1.5751   1.9902   2.1057   3.1200   3.4566   3.5179
     4.1290   6.3742   6.7325   7.0086  12.6993  14.1888  16.3971  18.3100

     occupation numbers 
     1.0000   1.0000   1.0000   1.0000   1.0000   1.0000   1.0000   1.0000
     1.0000   1.0000   1.0000   1.0000   1.0000   1.0000   1.0001   1.0005
     1.0280   0.0000   0.0000   0.0000   0.0000   0.0000   0.0000   0.0000

          k = 0.0000 0.2887 0.0000 (  3067 PWs)   bands (ev):

   -91.5043 -54.7480 -54.7418 -54.7137 -42.9339 -14.6669 -13.3382  -1.5209
    -0.8557  -0.6193   0.1323   1.4095   2.6573   3.2526   3.6268   3.6912
     4.2683   5.6972   6.6050   8.2053  12.9144  14.8194  16.3872  17.2326

     occupation numbers 
     1.0000   1.0000   1.0000   1.0000   1.0000   1.0000   1.0000   1.0000
     1.0000   1.0000   1.0000   1.0000   1.0000   1.0000   1.0028   1.0070
     0.7616   0.0000   0.0000   0.0000   0.0000   0.0000   0.0000   0.0000

          k = 0.0000 0.2887 0.1119 (  3070 PWs)   bands (ev):

   -91.5043 -54.7480 -54.7419 -54.7137 -42.9339 -14.6669 -13.3382  -1.5241
    -0.8487  -0.6193   0.1365   1.4094   2.6081   3.1861   3.6913   3.8927
     4.0495   5.8662   6.6050   8.0178  13.2145  14.8702  15.5944  17.3822

     occupation numbers 
     1.0000   1.0000   1.0000   1.0000   1.0000   1.0000   1.0000   1.0000
     1.0000   1.0000   1.0000   1.0000   1.0000   1.0000   1.0070   1.0529
     1.0796   0.0000   0.0000   0.0000   0.0000   0.0000   0.0000   0.0000

          k = 0.0000 0.4330 0.0000 (  3054 PWs)   bands (ev):

   -91.5018 -54.7682 -54.7439 -54.7198 -42.9238 -14.0646 -13.4082  -1.9897
    -0.8596  -0.4227   0.1620   1.2670   2.1169   3.1373   3.4265   3.7087
     4.9479   5.9666   6.6478   9.7143  11.1504  15.1099  15.5752  16.3420

     occupation numbers 
     1.0000   1.0000   1.0000   1.0000   1.0000   1.0000   1.0000   1.0000
     1.0000   1.0000   1.0000   1.0000   1.0000   1.0000   1.0001   1.0088
     0.0003   0.0000   0.0000   0.0000   0.0000   0.0000   0.0000   0.0000

          k = 0.0000 0.4330 0.1119 (  3062 PWs)   bands (ev):

   -91.5018 -54.7682 -54.7439 -54.7199 -42.9238 -14.0647 -13.4082  -1.9907
    -0.8601  -0.4228   0.1656   1.2670   2.1263   3.1307   3.4265   3.7172
     4.8469   6.0870   6.6477   9.6599  11.1329  15.2426  15.8871  16.3445

     occupation numbers 
     1.0000   1.0000   1.0000   1.0000   1.0000   1.0000   1.0000   1.0000
     1.0000   1.0000   1.0000   1.0000   1.0000   1.0000   1.0001   1.0098
     0.0021   0.0000   0.0000   0.0000   0.0000   0.0000   0.0000   0.0000

          k = 0.0000-0.5774 0.0000 (  3050 PWs)   bands (ev):

   -91.5007 -54.7790 -54.7423 -54.7224 -42.9195 -13.6709 -13.5618  -2.4032
    -0.6646  -0.3943   0.3386   1.3669   1.8390   2.8935   3.1818   3.6354
     5.7013   6.1672   6.7011   9.7779  11.3967  13.1677  15.9856  16.1398

     occupation numbers 
     1.0000   1.0000   1.0000   1.0000   1.0000   1.0000   1.0000   1.0000
     1.0000   1.0000   1.0000   1.0000   1.0000   1.0000   1.0000   1.0032
     0.0000   0.0000   0.0000   0.0000   0.0000   0.0000   0.0000   0.0000

          k = 0.0000-0.5774 0.1119 (  3058 PWs)   bands (ev):

   -91.5007 -54.7791 -54.7422 -54.7225 -42.9196 -13.6709 -13.5618  -2.4038
    -0.6646  -0.3943   0.3371   1.3668   1.8514   2.8909   3.1818   3.6311
     5.6313   6.2360   6.7009   9.7356  11.4904  13.1741  16.0337  16.8319

     occupation numbers 
     1.0000   1.0000   1.0000   1.0000   1.0000   1.0000   1.0000   1.0000
     1.0000   1.0000   1.0000   1.0000   1.0000   1.0000   1.0000   1.0030
     0.0000   0.0000   0.0000   0.0000   0.0000   0.0000   0.0000   0.0000

          k = 0.1250 0.2165 0.0000 (  3085 PWs)   bands (ev):

   -91.5051 -54.7491 -54.7331 -54.7132 -42.9370 -14.8220 -13.3289  -1.4219
    -1.0019  -0.7431   0.6753   1.2376   2.7198   3.2077   3.4515   3.7765
     4.2768   5.8696   6.4728   7.9126  12.8441  15.7027  16.1054  16.2792

     occupation numbers 
     1.0000   1.0000   1.0000   1.0000   1.0000   1.0000   1.0000   1.0000
     1.0000   1.0000   1.0000   1.0000   1.0000   1.0000   1.0001   1.0194
     0.7395   0.0000   0.0000   0.0000   0.0000   0.0000   0.0000   0.0000

          k = 0.1250 0.2165 0.1119 (  3077 PWs)   bands (ev):

   -91.5051 -54.7491 -54.7331 -54.7132 -42.9369 -14.8220 -13.3289  -1.4248
    -0.9933  -0.7429   0.6787   1.2376   2.5800   3.2132   3.5850   3.8862
     4.1647   5.9782   6.4283   7.7725  13.2298  15.0385  15.7794  16.9874

     occupation numbers 
     1.0000   1.0000   1.0000   1.0000   1.0000   1.0000   1.0000   1.0000
     1.0000   1.0000   1.0000   1.0000   1.0000   1.0000   1.0015   1.0507
     0.9808   0.0000   0.0000   0.0000   0.0000   0.0000   0.0000   0.0000

          k = 0.1250 0.3608 0.0000 (  3058 PWs)   bands (ev):

   -91.5025 -54.7566 -54.7450 -54.7220 -42.9267 -14.2697 -13.3660  -1.5651
    -1.0060  -0.3748   0.0654   0.8074   2.4484   3.2435   3.5841   3.9169
     4.6094   5.8851   6.3602   9.1276  12.3396  14.0232  16.0873  17.1909

     occupation numbers 
     1.0000   1.0000   1.0000   1.0000   1.0000   1.0000   1.0000   1.0000
     1.0000   1.0000   1.0000   1.0000   1.0000   1.0000   1.0014   1.0613
     0.0651   0.0000   0.0000   0.0000   0.0000   0.0000   0.0000   0.0000

          k = 0.1250 0.3608 0.1119 (  3067 PWs)   bands (ev):

   -91.5025 -54.7566 -54.7451 -54.7220 -42.9268 -14.2697 -13.3660  -1.5672
    -1.0061  -0.3724   0.0701   0.8075   2.4438   3.2425   3.5965   3.8916
     4.5703   6.0145   6.3171   9.0656  12.3506  14.0933  16.0532  16.8846

     occupation numbers 
     1.0000   1.0000   1.0000   1.0000   1.0000   1.0000   1.0000   1.0000
     1.0000   1.0000   1.0000   1.0000   1.0000   1.0000   1.0018   1.0525
     0.0995   0.0000   0.0000   0.0000   0.0000   0.0000   0.0000   0.0000

          k = 0.1250 0.5052 0.0000 (  3055 PWs)   bands (ev):

   -91.5007 -54.7731 -54.7423 -54.7284 -42.9196 -13.7681 -13.4663  -2.0940
    -1.0317  -0.1198   0.3642   0.8035   1.8171   3.0195   3.3260   3.8339
     5.6619   6.1481   6.4679   9.9728  10.9980  14.2554  14.4364  16.4976

     occupation numbers 
     1.0000   1.0000   1.0000   1.0000   1.0000   1.0000   1.0000   1.0000
     1.0000   1.0000   1.0000   1.0000   1.0000   1.0000   1.0000   1.0338
     0.0000   0.0000   0.0000   0.0000   0.0000   0.0000   0.0000   0.0000

          k = 0.1250 0.5052 0.1119 (  3051 PWs)   bands (ev):

   -91.5007 -54.7731 -54.7422 -54.7284 -42.9196 -13.7681 -13.4663  -2.0946
    -1.0321  -0.1197   0.3642   0.8035   1.8252   3.0182   3.3274   3.8284
     5.6101   6.2308   6.4357   9.9592  11.0020  14.2952  14.4490  16.8054

     occupation numbers 
     1.0000   1.0000   1.0000   1.0000   1.0000   1.0000   1.0000   1.0000
     1.0000   1.0000   1.0000   1.0000   1.0000   1.0000   1.0000   1.0322
     0.0000   0.0000   0.0000   0.0000   0.0000   0.0000   0.0000   0.0000

          k = 0.2500 0.4330 0.0000 (  3067 PWs)   bands (ev):

   -91.5007 -54.7649 -54.7424 -54.7366 -42.9196 -13.8243 -13.4118  -1.4991
    -1.3797  -0.2918   0.3623   0.4734   1.8449   3.0990   3.4318   4.0318
     5.5800   6.1342   6.2511  10.2532  10.7359  13.3882  16.1370  16.8116

     occupation numbers 
     1.0000   1.0000   1.0000   1.0000   1.0000   1.0000   1.0000   1.0000
     1.0000   1.0000   1.0000   1.0000   1.0000   1.0000   1.0001   1.0826
     0.0000   0.0000   0.0000   0.0000   0.0000   0.0000   0.0000   0.0000

          k = 0.2500 0.4330 0.1119 (  3068 PWs)   bands (ev):

   -91.5007 -54.7649 -54.7424 -54.7366 -42.9196 -13.8243 -13.4119  -1.4993
    -1.3808  -0.2919   0.3632   0.4763   1.8442   3.1002   3.4344   4.0170
     5.6447   6.0760   6.2414  10.2525  10.7704  13.3502  16.0992  16.8116

     occupation numbers 
     1.0000   1.0000   1.0000   1.0000   1.0000   1.0000   1.0000   1.0000
     1.0000   1.0000   1.0000   1.0000   1.0000   1.0000   1.0001   1.0833
     0.0000   0.0000   0.0000   0.0000   0.0000   0.0000   0.0000   0.0000

          k = 0.2500 0.5774 0.0000 (  3044 PWs)   bands (ev):

   -91.5000 -54.7654 -54.7455 -54.7411 -42.9166 -13.5891 -13.4705  -1.6700
    -1.2871  -0.4762   0.5167   0.7367   1.3707   2.7984   3.6584   3.9300
     6.0434   6.1068   6.9225   8.7021  12.3552  13.2203  14.2516  16.5748

     occupation numbers 
     1.0000   1.0000   1.0000   1.0000   1.0000   1.0000   1.0000   1.0000
     1.0000   1.0000   1.0000   1.0000   1.0000   1.0000   1.0045   1.0656
     0.0000   0.0000   0.0000   0.0000   0.0000   0.0000   0.0000   0.0000

          k = 0.2500 0.5774 0.1119 (  3050 PWs)   bands (ev):

   -91.5000 -54.7654 -54.7456 -54.7411 -42.9166 -13.5891 -13.4705  -1.6704
    -1.2874  -0.4765   0.5177   0.7365   1.3725   2.7982   3.6594   3.9256
     6.0811   6.1131   6.8747   8.6799  12.3818  13.2073  14.3215  16.5474

     occupation numbers 
     1.0000   1.0000   1.0000   1.0000   1.0000   1.0000   1.0000   1.0000
     1.0000   1.0000   1.0000   1.0000   1.0000   1.0000   1.0046   1.0642
     0.0000   0.0000   0.0000   0.0000   0.0000   0.0000   0.0000   0.0000

          k = 0.0000-0.1443 0.1119 (  3086 PWs)   bands (ev):

   -91.5068 -54.7518 -54.7158 -54.7076 -42.9441 -15.1687 -13.3186  -1.3979
    -1.2178  -0.8988   1.5678   1.9902   2.1151   3.1231   3.4566   3.5013
     4.1546   6.2821   6.7325   7.0986  12.6430  14.2325  16.4265  18.2658

     occupation numbers 
     1.0000   1.0000   1.0000   1.0000   1.0000   1.0000   1.0000   1.0000
     1.0000   1.0000   1.0000   1.0000   1.0000   1.0000   1.0001   1.0003
     0.9958   0.0000   0.0000   0.0000   0.0000   0.0000   0.0000   0.0000

          k = 0.0000-0.2887 0.1119 (  3070 PWs)   bands (ev):

   -91.5043 -54.7480 -54.7419 -54.7137 -42.9339 -14.6669 -13.3382  -1.5227
    -0.8504  -0.6193   0.1373   1.4095   2.5832   3.2132   3.6913   3.7601
     4.2697   5.6901   6.6050   8.1571  13.0112  14.9268  15.7670  17.3820

     occupation numbers 
     1.0000   1.0000   1.0000   1.0000   1.0000   1.0000   1.0000   1.0000
     1.0000   1.0000   1.0000   1.0000   1.0000   1.0000   1.0070   1.0163
     0.7578   0.0000   0.0000   0.0000   0.0000   0.0000   0.0000   0.0000

          k = 0.0000-0.4330 0.1119 (  3062 PWs)   bands (ev):

   -91.5018 -54.7682 -54.7439 -54.7199 -42.9238 -14.0646 -13.4082  -1.9905
    -0.8605  -0.4228   0.1687   1.2669   2.1131   3.1395   3.4265   3.6939
     4.9623   5.9499   6.6477   9.8020  11.0965  14.9574  15.5241  16.3442

     occupation numbers 
     1.0000   1.0000   1.0000   1.0000   1.0000   1.0000   1.0000   1.0000
     1.0000   1.0000   1.0000   1.0000   1.0000   1.0000   1.0001   1.0073
     0.0002   0.0000   0.0000   0.0000   0.0000   0.0000   0.0000   0.0000

          k =-0.1250-0.3608 0.1119 (  3067 PWs)   bands (ev):

   -91.5025 -54.7566 -54.7451 -54.7220 -42.9268 -14.2697 -13.3660  -1.5667
    -1.0065  -0.3734   0.0722   0.8073   2.4335   3.2497   3.6059   3.8484
     4.6695   5.8797   6.3562   9.1414  12.3083  14.0250  16.1157  16.8228

     occupation numbers 
     1.0000   1.0000   1.0000   1.0000   1.0000   1.0000   1.0000   1.0000
     1.0000   1.0000   1.0000   1.0000   1.0000   1.0000   1.0020   1.0382
     0.0314   0.0000   0.0000   0.0000   0.0000   0.0000   0.0000   0.0000

          k =-0.1250-0.5052 0.1119 (  3051 PWs)   bands (ev):

   -91.5007 -54.7731 -54.7422 -54.7284 -42.9196 -13.7681 -13.4663  -2.0946
    -1.0319  -0.1202   0.3664   0.8040   1.8199   3.0206   3.3278   3.8232
     5.6791   6.1354   6.4560   9.9462  11.0960  14.2276  14.3362  16.5714

     occupation numbers 
     1.0000   1.0000   1.0000   1.0000   1.0000   1.0000   1.0000   1.0000
     1.0000   1.0000   1.0000   1.0000   1.0000   1.0000   1.0000   1.0307
     0.0000   0.0000   0.0000   0.0000   0.0000   0.0000   0.0000   0.0000

 ------ SPIN DOWN ----------


          k = 0.0000 0.0000 0.0000 (  3123 PWs)   bands (ev):

   -90.8605 -54.1189 -54.1189 -54.0337 -42.9666 -15.2640 -13.2112  -1.3525
    -0.8113  -0.8113   2.0673   2.7638   2.9581   2.9581   3.2263   3.2263
     4.8692   6.8128   7.1179   7.1179  11.5754  14.5425  15.9944  19.6518

     occupation numbers 
     1.0000   1.0000   1.0000   1.0000   1.0000   1.0000   1.0000   1.0000
     1.0000   1.0000   1.0000   1.0000   1.0000   1.0000   1.0000   1.0000
     0.0014   0.0000   0.0000   0.0000   0.0000   0.0000   0.0000   0.0000

          k = 0.0000 0.0000 0.1119 (  3075 PWs)   bands (ev):

   -90.8604 -54.1187 -54.1187 -54.0334 -42.9664 -15.2640 -13.2112  -1.3363
    -0.8113  -0.8113   1.7516   2.9582   2.9582   3.2263   3.2263   3.2786
     4.7379   6.5857   7.1181   7.1181  12.2815  13.7810  15.9480  19.9554

     occupation numbers 
     1.0000   1.0000   1.0000   1.0000   1.0000   1.0000   1.0000   1.0000
     1.0000   1.0000   1.0000   1.0000   1.0000   1.0000   1.0000   1.0000
     0.0123   0.0000   0.0000   0.0000   0.0000   0.0000   0.0000   0.0000

          k = 0.0000 0.1443 0.0000 (  3099 PWs)   bands (ev):

   -90.8594 -54.1299 -54.1214 -54.0320 -42.9623 -15.0724 -13.2130  -1.1502
    -1.0100  -0.6969   1.7739   2.2590   2.4680   3.0096   3.6196   3.8391
     4.9104   6.4921   7.0053   7.3013  12.0968  15.1883  16.1725  18.2327

     occupation numbers 
     1.0000   1.0000   1.0000   1.0000   1.0000   1.0000   1.0000   1.0000
     1.0000   1.0000   1.0000   1.0000   1.0000   1.0000   1.0025   1.0353
     0.0007   0.0000   0.0000   0.0000   0.0000   0.0000   0.0000   0.0000

          k = 0.0000 0.1443 0.1119 (  3086 PWs)   bands (ev):

   -90.8594 -54.1298 -54.1214 -54.0319 -42.9622 -15.0724 -13.2130  -1.1398
    -1.0085  -0.6969   1.7803   2.1610   2.2590   3.4155   3.6805   3.8390
     4.7718   6.6450   6.9855   7.0053  12.7421  14.2644  16.4528  18.2333

     occupation numbers 
     1.0000   1.0000   1.0000   1.0000   1.0000   1.0000   1.0000   1.0000
     1.0000   1.0000   1.0000   1.0000   1.0000   1.0001   1.0061   1.0353
     0.0073   0.0000   0.0000   0.0000   0.0000   0.0000   0.0000   0.0000

          k = 0.0000 0.2887 0.0000 (  3067 PWs)   bands (ev):

   -90.8568 -54.1568 -54.1277 -54.0277 -42.9520 -14.5687 -13.2311  -1.3401
    -0.6200  -0.4321   0.3192   1.6343   2.8232   3.6383   3.7911   4.1587
     4.7680   5.9851   6.8635   8.1801  12.9020  14.7586  16.4604  17.2930

     occupation numbers 
     1.0000   1.0000   1.0000   1.0000   1.0000   1.0000   1.0000   1.0000
     1.0000   1.0000   1.0000   1.0000   1.0000   1.0034   1.0226   0.9898
     0.0078   0.0000   0.0000   0.0000   0.0000   0.0000   0.0000   0.0000

          k = 0.0000 0.2887 0.1119 (  3070 PWs)   bands (ev):

   -90.8568 -54.1568 -54.1277 -54.0277 -42.9520 -14.5687 -13.2311  -1.3440
    -0.6117  -0.4321   0.3264   1.6343   2.7346   3.5805   3.9887   4.1588
     4.6537   6.1673   6.8635   7.9672  13.1871  14.8625  15.6172  17.2861

     occupation numbers 
     1.0000   1.0000   1.0000   1.0000   1.0000   1.0000   1.0000   1.0000
     1.0000   1.0000   1.0000   1.0000   1.0000   1.0014   1.0809   0.9898
     0.0384   0.0000   0.0000   0.0000   0.0000   0.0000   0.0000   0.0000

          k = 0.0000 0.4330 0.0000 (  3054 PWs)   bands (ev):

   -90.8541 -54.1838 -54.1339 -54.0235 -42.9418 -13.9636 -13.3001  -1.8321
    -0.7433  -0.2385   0.4393   1.4112   2.2851   3.7347   3.9912   4.3220
     4.8367   6.2827   6.9056   9.6685  11.0328  15.1240  15.5407  16.2396

     occupation numbers 
     1.0000   1.0000   1.0000   1.0000   1.0000   1.0000   1.0000   1.0000
     1.0000   1.0000   1.0000   1.0000   1.0000   1.0122   1.0813   0.6167
     0.0025   0.0000   0.0000   0.0000   0.0000   0.0000   0.0000   0.0000

          k = 0.0000 0.4330 0.1119 (  3062 PWs)   bands (ev):

   -90.8542 -54.1838 -54.1340 -54.0235 -42.9418 -13.9636 -13.3001  -1.8332
    -0.7439  -0.2386   0.4440   1.4112   2.2962   3.7178   3.9912   4.3497
     4.7443   6.3899   6.9054   9.6067  11.0153  15.2339  15.8716  16.2421

     occupation numbers 
     1.0000   1.0000   1.0000   1.0000   1.0000   1.0000   1.0000   1.0000
     1.0000   1.0000   1.0000   1.0000   1.0000   1.0099   1.0813   0.5399
     0.0112   0.0000   0.0000   0.0000   0.0000   0.0000   0.0000   0.0000

          k = 0.0000-0.5774 0.0000 (  3050 PWs)   bands (ev):

   -90.8531 -54.1950 -54.1366 -54.0218 -42.9375 -13.5706 -13.4512  -2.2598
    -0.5776  -0.2047   0.6255   1.4415   1.9835   3.5957   3.8123   4.2295
     5.5475   6.5027   6.9626   9.6610  11.3589  13.0948  15.8815  16.1840

     occupation numbers 
     1.0000   1.0000   1.0000   1.0000   1.0000   1.0000   1.0000   1.0000
     1.0000   1.0000   1.0000   1.0000   1.0000   1.0017   1.0278   0.8561
     0.0000   0.0000   0.0000   0.0000   0.0000   0.0000   0.0000   0.0000

          k = 0.0000-0.5774 0.1119 (  3058 PWs)   bands (ev):

   -90.8531 -54.1950 -54.1367 -54.0218 -42.9375 -13.5706 -13.4512  -2.2604
    -0.5776  -0.2047   0.6234   1.4414   1.9981   3.5902   3.8123   4.2250
     5.5049   6.5474   6.9625   9.6176  11.4540  13.0995  15.8844  16.0589

     occupation numbers 
     1.0000   1.0000   1.0000   1.0000   1.0000   1.0000   1.0000   1.0000
     1.0000   1.0000   1.0000   1.0000   1.0000   1.0016   1.0278   0.8662
     0.0000   0.0000   0.0000   0.0000   0.0000   0.0000   0.0000   0.0000

          k = 0.1250 0.2165 0.0000 (  3085 PWs)   bands (ev):

   -90.8576 -54.1476 -54.1271 -54.0290 -42.9551 -14.7244 -13.2222  -1.2393
    -0.7420  -0.5530   0.8492   1.4691   2.8575   3.4518   3.7691   4.1842
     4.8361   6.1275   6.7405   7.8967  12.8679  15.5949  16.1279  16.3384

     occupation numbers 
     1.0000   1.0000   1.0000   1.0000   1.0000   1.0000   1.0000   1.0000
     1.0000   1.0000   1.0000   1.0000   1.0000   1.0001   1.0180   0.9484
     0.0026   0.0000   0.0000   0.0000   0.0000   0.0000   0.0000   0.0000

          k = 0.1250 0.2165 0.1119 (  3077 PWs)   bands (ev):

   -90.8575 -54.1476 -54.1271 -54.0289 -42.9550 -14.7244 -13.2222  -1.2429
    -0.7312  -0.5522   0.8550   1.4690   2.6620   3.6728   3.7691   4.2536
     4.7348   6.2523   6.6858   7.7470  13.2508  15.1142  15.6444  16.9969

     occupation numbers 
     1.0000   1.0000   1.0000   1.0000   1.0000   1.0000   1.0000   1.0000
     1.0000   1.0000   1.0000   1.0000   1.0000   1.0055   1.0180   0.7986
     0.0128   0.0000   0.0000   0.0000   0.0000   0.0000   0.0000   0.0000

          k = 0.1250 0.3608 0.0000 (  3058 PWs)   bands (ev):

   -90.8549 -54.1719 -54.1362 -54.0247 -42.9448 -14.1697 -13.2580  -1.3943
    -0.8615  -0.1832   0.3074   0.9893   2.6126   3.8244   4.1825   4.3476
     4.6243   6.1771   6.6218   9.0874  12.2163  13.9867  16.0835  17.2491

     occupation numbers 
     1.0000   1.0000   1.0000   1.0000   1.0000   1.0000   1.0000   1.0000
     1.0000   1.0000   1.0000   1.0000   1.0000   1.0311   0.9515   0.5457
     0.0548   0.0000   0.0000   0.0000   0.0000   0.0000   0.0000   0.0000

          k = 0.1250 0.3608 0.1119 (  3067 PWs)   bands (ev):

   -90.8549 -54.1719 -54.1362 -54.0248 -42.9448 -14.1697 -13.2580  -1.3967
    -0.8617  -0.1812   0.3151   0.9895   2.6041   3.8166   4.1369   4.4020
     4.5838   6.3033   6.5778   9.0154  12.2260  14.0537  16.0916  16.8987

     occupation numbers 
     1.0000   1.0000   1.0000   1.0000   1.0000   1.0000   1.0000   1.0000
     1.0000   1.0000   1.0000   1.0000   1.0000   1.0290   1.0190   0.4011
     0.0863   0.0000   0.0000   0.0000   0.0000   0.0000   0.0000   0.0000

          k = 0.1250 0.5052 0.0000 (  3055 PWs)   bands (ev):

   -90.8531 -54.1889 -54.1428 -54.0218 -42.9375 -13.6660 -13.3575  -1.9492
    -0.9022   0.0421   0.6067   0.9471   1.9802   3.7664   3.9292   4.3579
     5.5407   6.4511   6.7240   9.8416  10.9505  14.1935  14.3690  16.5292

     occupation numbers 
     1.0000   1.0000   1.0000   1.0000   1.0000   1.0000   1.0000   1.0000
     1.0000   1.0000   1.0000   1.0000   1.0000   1.0174   1.0654   0.5174
     0.0000   0.0000   0.0000   0.0000   0.0000   0.0000   0.0000   0.0000

          k = 0.1250 0.5052 0.1119 (  3051 PWs)   bands (ev):

   -90.8531 -54.1889 -54.1428 -54.0218 -42.9375 -13.6660 -13.3575  -1.9498
    -0.9026   0.0422   0.6065   0.9470   1.9901   3.7623   3.9312   4.3507
     5.5102   6.5064   6.7014   9.8279  10.9542  14.2279  14.3855  16.8557

     occupation numbers 
     1.0000   1.0000   1.0000   1.0000   1.0000   1.0000   1.0000   1.0000
     1.0000   1.0000   1.0000   1.0000   1.0000   1.0167   1.0660   0.5371
     0.0000   0.0000   0.0000   0.0000   0.0000   0.0000   0.0000   0.0000

          k = 0.2500 0.4330 0.0000 (  3067 PWs)   bands (ev):

   -90.8531 -54.1805 -54.1514 -54.0219 -42.9375 -13.7223 -13.3029  -1.3656
    -1.2177  -0.1744   0.5451   0.7235   2.0116   3.8858   4.0111   4.5222
     5.5060   6.4266   6.4626  10.0974  10.6872  13.3390  16.1018  16.8079

     occupation numbers 
     1.0000   1.0000   1.0000   1.0000   1.0000   1.0000   1.0000   1.0000
     1.0000   1.0000   1.0000   1.0000   1.0000   1.0505   1.0832   0.1590
     0.0000   0.0000   0.0000   0.0000   0.0000   0.0000   0.0000   0.0000

          k = 0.2500 0.4330 0.1119 (  3068 PWs)   bands (ev):

   -90.8531 -54.1805 -54.1514 -54.0218 -42.9375 -13.7223 -13.3029  -1.3657
    -1.2190  -0.1745   0.5451   0.7285   2.0103   3.8872   4.0148   4.4964
     5.5576   6.3530   6.4913  10.0957  10.7224  13.3013  16.0726  16.7861

     occupation numbers 
     1.0000   1.0000   1.0000   1.0000   1.0000   1.0000   1.0000   1.0000
     1.0000   1.0000   1.0000   1.0000   1.0000   1.0510   1.0833   0.1997
     0.0000   0.0000   0.0000   0.0000   0.0000   0.0000   0.0000   0.0000

          k = 0.2500 0.5774 0.0000 (  3044 PWs)   bands (ev):

   -90.8523 -54.1809 -54.1605 -54.0206 -42.9345 -13.4879 -13.3593  -1.5298
    -1.1471  -0.3642   0.6920   0.9788   1.5143   3.6392   4.2186   4.4548
     6.2611   6.4035   6.8293   8.5504  12.3296  13.1652  14.1742  16.5169

     occupation numbers 
     1.0000   1.0000   1.0000   1.0000   1.0000   1.0000   1.0000   1.0000
     1.0000   1.0000   1.0000   1.0000   1.0000   1.0034   0.8804   0.2789
     0.0000   0.0000   0.0000   0.0000   0.0000   0.0000   0.0000   0.0000

          k = 0.2500 0.5774 0.1119 (  3050 PWs)   bands (ev):

   -90.8523 -54.1810 -54.1605 -54.0206 -42.9345 -13.4879 -13.3593  -1.5302
    -1.1474  -0.3646   0.6930   0.9785   1.5166   3.6389   4.2199   4.4487
     6.3289   6.4107   6.7538   8.5253  12.3587  13.1505  14.2453  16.4962

     occupation numbers 
     1.0000   1.0000   1.0000   1.0000   1.0000   1.0000   1.0000   1.0000
     1.0000   1.0000   1.0000   1.0000   1.0000   1.0034   0.8774   0.2918
     0.0000   0.0000   0.0000   0.0000   0.0000   0.0000   0.0000   0.0000

          k = 0.0000-0.1443 0.1119 (  3086 PWs)   bands (ev):

   -90.8594 -54.1298 -54.1214 -54.0319 -42.9622 -15.0724 -13.2130  -1.1378
    -1.0103  -0.6969   1.7635   2.1842   2.2590   3.3921   3.6988   3.8391
     4.7854   6.5059   7.0053   7.1220  12.6841  14.3108  16.4836  18.1873

     occupation numbers 
     1.0000   1.0000   1.0000   1.0000   1.0000   1.0000   1.0000   1.0000
     1.0000   1.0000   1.0000   1.0000   1.0000   1.0000   1.0078   1.0353
     0.0059   0.0000   0.0000   0.0000   0.0000   0.0000   0.0000   0.0000

          k = 0.0000-0.2887 0.1119 (  3070 PWs)   bands (ev):

   -90.8568 -54.1568 -54.1277 -54.0277 -42.9520 -14.5687 -13.2311  -1.3426
    -0.6133  -0.4321   0.3274   1.6343   2.7055   3.6120   3.9854   4.1588
     4.7385   5.9781   6.8635   8.1263  12.9909  14.8901  15.8173  17.2858

     occupation numbers 
     1.0000   1.0000   1.0000   1.0000   1.0000   1.0000   1.0000   1.0000
     1.0000   1.0000   1.0000   1.0000   1.0000   1.0023   1.0803   0.9898
     0.0121   0.0000   0.0000   0.0000   0.0000   0.0000   0.0000   0.0000

          k = 0.0000-0.4330 0.1119 (  3062 PWs)   bands (ev):

   -90.8542 -54.1839 -54.1340 -54.0235 -42.9418 -13.9636 -13.3001  -1.8331
    -0.7443  -0.2386   0.4485   1.4111   2.2784   3.7280   3.9912   4.2992
     4.8667   6.2690   6.9055   9.7547  10.9803  14.9598  15.4976  16.2417

     occupation numbers 
     1.0000   1.0000   1.0000   1.0000   1.0000   1.0000   1.0000   1.0000
     1.0000   1.0000   1.0000   1.0000   1.0000   1.0112   1.0813   0.6794
     0.0015   0.0000   0.0000   0.0000   0.0000   0.0000   0.0000   0.0000

          k =-0.1250-0.3608 0.1119 (  3067 PWs)   bands (ev):

   -90.8549 -54.1719 -54.1362 -54.0248 -42.9448 -14.1697 -13.2580  -1.3963
    -0.8620  -0.1822   0.3179   0.9892   2.5902   3.8324   4.1548   4.2995
     4.7175   6.1731   6.6185   9.0963  12.1878  13.9827  16.1415  16.8457

     occupation numbers 
     1.0000   1.0000   1.0000   1.0000   1.0000   1.0000   1.0000   1.0000
     1.0000   1.0000   1.0000   1.0000   1.0000   1.0333   0.9954   0.6785
     0.0165   0.0000   0.0000   0.0000   0.0000   0.0000   0.0000   0.0000

          k =-0.1250-0.5052 0.1119 (  3051 PWs)   bands (ev):

   -90.8531 -54.1889 -54.1428 -54.0218 -42.9375 -13.6660 -13.3575  -1.9498
    -0.9025   0.0416   0.6092   0.9481   1.9833   3.7665   3.9308   4.3421
     5.5541   6.4431   6.7174   9.8138  11.0489  14.1688  14.2736  16.5801

     occupation numbers 
     1.0000   1.0000   1.0000   1.0000   1.0000   1.0000   1.0000   1.0000
     1.0000   1.0000   1.0000   1.0000   1.0000   1.0175   1.0659   0.5608
     0.0000   0.0000   0.0000   0.0000   0.0000   0.0000   0.0000   0.0000

     the Fermi energy is     4.4022 ev

!    total energy              =    -474.99874679 Ry
     total all-electron energy =     -3102.870884 Ry
     estimated scf accuracy    <       0.00000005 Ry
     smearing contrib. (-TS)   =       0.00217210 Ry
     internal energy E=F+TS    =    -475.00091889 Ry

     The total energy is F=E-TS. E is the sum of the following terms:
     one-electron contribution =    -641.25681906 Ry
     hartree contribution      =     329.99949321 Ry
     xc contribution           =     -48.93011843 Ry
     ewald contribution        =      -8.10683828 Ry
     one-center paw contrib.   =    -106.70663634 Ry
      -> PAW hartree energy AE =     278.50476929 Ry
      -> PAW hartree energy PS =    -277.15533403 Ry
      -> PAW xc energy AE      =    -154.15316914 Ry
      -> PAW xc energy PS      =      46.09709753 Ry
      -> total E_H with PAW    =     331.34892848 Ry
      -> total E_XC with PAW   =    -156.98619004 Ry

     total magnetization       =     0.63 Bohr mag/cell
     absolute magnetization    =     0.77 Bohr mag/cell

     convergence has been achieved in  16 iterations

     Forces acting on atoms (cartesian axes, Ry/au):

     atom    1 type  1   force =     0.00000000    0.00000000    0.00969241
     atom    2 type  2   force =     0.00000000    0.00000000   -0.00658778
     atom    3 type  2   force =     0.00000000    0.00000000   -0.01231942
     atom    4 type  3   force =     0.00000000    0.00000000    0.00921479
     The non-local contrib.  to forces
     atom    1 type  1   force =    -0.00000000   -0.00000000    0.01863276
     atom    2 type  2   force =    -0.00000000   -0.00000000   -1.22377557
     atom    3 type  2   force =     0.00000000    0.00000000    1.06346156
     atom    4 type  3   force =     0.00000000   -0.00000000    0.00536531
     The ionic contribution  to forces
     atom    1 type  1   force =    -0.00000000   -0.00000000    1.86673993
     atom    2 type  2   force =     0.00000000   -0.00000000   38.10838664
     atom    3 type  2   force =    -0.00000000    0.00000000  -36.80574091
     atom    4 type  3   force =     0.00000000   -0.00000000   -3.16938566
     The local contribution  to forces
     atom    1 type  1   force =    -0.00000000   -0.00000000   -1.87582796
     atom    2 type  2   force =     0.00000001   -0.00000001  -36.90168819
     atom    3 type  2   force =    -0.00000001    0.00000001   35.73868784
     atom    4 type  3   force =    -0.00000000   -0.00000000    3.17328233
     The core correction contribution to forces
     atom    1 type  1   force =    -0.00000000    0.00000000   -0.00015510
     atom    2 type  2   force =    -0.00000000    0.00000000    0.01055262
     atom    3 type  2   force =     0.00000000   -0.00000000   -0.00894300
     atom    4 type  3   force =     0.00000000    0.00000000    0.00000000
     The Hubbard contrib.    to forces
     atom    1 type  1   force =     0.00000000    0.00000000    0.00000000
     atom    2 type  2   force =     0.00000000    0.00000000    0.00000000
     atom    3 type  2   force =     0.00000000    0.00000000    0.00000000
     atom    4 type  3   force =     0.00000000    0.00000000    0.00000000
     The SCF correction term to forces
     atom    1 type  1   force =    -0.00000000   -0.00000000    0.00031140
     atom    2 type  2   force =     0.00000000   -0.00000000   -0.00005464
     atom    3 type  2   force =    -0.00000000    0.00000000    0.00022373
     atom    4 type  3   force =    -0.00000000   -0.00000000   -0.00003857

     Total force =     0.019340     Total SCF correction =     0.000389

     Writing all to output data dir ./out/pw.save/ :
     XML data file, charge density, pseudopotentials, collected wavefunctions
 
     init_run     :     12.06s CPU      3.25s WALL (       1 calls)
     electrons    :     77.25s CPU     21.79s WALL (       1 calls)
     forces       :      0.66s CPU      0.52s WALL (       1 calls)

     Called by init_run:
     wfcinit      :      0.26s CPU      0.35s WALL (       1 calls)
     wfcinit:atom :      0.04s CPU      0.04s WALL (      50 calls)
     wfcinit:wfcr :      0.16s CPU      0.22s WALL (      50 calls)
     potinit      :     11.29s CPU      2.35s WALL (       1 calls)
     hinit0       :      0.41s CPU      0.42s WALL (       1 calls)

     Called by electrons:
     c_bands      :     10.86s CPU     10.86s WALL (      16 calls)
     sum_band     :      1.80s CPU      1.76s WALL (      16 calls)
     v_of_rho     :      0.29s CPU      0.15s WALL (      17 calls)
     v_h          :      0.20s CPU      0.03s WALL (      17 calls)
     v_xc         :      0.10s CPU      0.13s WALL (      18 calls)
     newd         :      0.40s CPU      0.32s WALL (      17 calls)
                                        0.32s GPU  (      17 calls)
     PAW_pot      :     66.88s CPU      8.76s WALL (      17 calls)
     mix_rho      :      0.48s CPU      0.46s WALL (      16 calls)

     Called by c_bands:
     init_us_2    :      0.71s CPU      0.68s WALL (    1700 calls)
     cegterg      :      9.56s CPU      9.61s WALL (     800 calls)

     Called by sum_band:
     sum_band:wei :      0.02s CPU      0.02s WALL (      16 calls)
                                        0.02s GPU  (      16 calls)
     sum_band:loo :      1.13s CPU      1.08s WALL (      16 calls)
                                        1.08s GPU  (      16 calls)
     sum_band:buf :      0.13s CPU      0.14s WALL (     800 calls)
                                        0.13s GPU  (     800 calls)
     sum_band:ini :      0.33s CPU      0.32s WALL (     800 calls)
                                        0.32s GPU  (     800 calls)
     sum_band:cal :      0.03s CPU      0.05s WALL (     800 calls)
                                        0.04s GPU  (     800 calls)
     sum_band:bec :      0.17s CPU      0.19s WALL (     800 calls)
                                        0.18s GPU  (     800 calls)
     addusdens    :      0.54s CPU      0.54s WALL (      16 calls)
                                        0.54s GPU  (      16 calls)
     addusd:skk   :      0.00s CPU      0.00s WALL (      48 calls)
                                        0.00s GPU  (      48 calls)

     Called by *egterg:
     cdiaghg      :      3.05s CPU      3.18s WALL (    3912 calls)
                                        3.13s GPU  (    3912 calls)
     cegterg:over :      0.80s CPU      0.84s WALL (    3112 calls)
     cegterg:upda :      0.54s CPU      0.55s WALL (    3112 calls)
     cegterg:last :      0.10s CPU      0.10s WALL (    1635 calls)
     h_psi        :      3.50s CPU      3.55s WALL (    3962 calls)
                                        3.50s GPU  (    3962 calls)
     s_psi        :      0.61s CPU      0.64s WALL (    3962 calls)
     g_psi        :      0.02s CPU      0.08s WALL (    3112 calls)
                                        0.04s GPU  (    3112 calls)

     Called by h_psi:
     h_psi:calbec :      0.13s CPU      0.23s WALL (    3962 calls)
                                        0.18s GPU  (    3962 calls)
     vloc_psi     :      2.41s CPU      2.38s WALL (    3962 calls)
                                        2.33s GPU  (    3962 calls)
     add_vuspsi   :      0.55s CPU      0.65s WALL (    3962 calls)
                                        0.60s GPU  (    3962 calls)

     General routines
     calbec       :      0.14s CPU      0.17s WALL (    4962 calls)
     fft          :      3.07s CPU      0.91s WALL (     438 calls)
                                        0.02s GPU  (     404 calls)
     ffts         :      4.52s CPU      0.82s WALL (     607 calls)
                                        0.01s GPU  (     573 calls)
     fftw         :      0.24s CPU      0.76s WALL (   12828 calls)
                                        0.62s GPU  (   12828 calls)
     interpolate  :      7.71s CPU      1.70s WALL (      34 calls)
 
     Parallel routines

     PAW routines
     PAW_pot      :     66.88s CPU      8.76s WALL (      17 calls)
     PAW_symme    :      0.02s CPU      0.00s WALL (      33 calls)
 
     PWSCF        :   1m30.82s CPU     26.07s WALL

 
   This run was terminated on:   3:20:57  12Jul2026            

=------------------------------------------------------------------------------=
   JOB DONE.
=------------------------------------------------------------------------------=
Warning: ieee_divide_by_zero is signaling
Warning: ieee_inexact is signaling
FORTRAN STOP
