
     Program PWSCF v.7.3.1 starts on 12Jul2026 at  2:21:11 

     This program is part of the open-source Quantum ESPRESSO suite
     for quantum simulation of materials; please cite
         "P. Giannozzi et al., J. Phys.:Condens. Matter 21 395502 (2009);
         "P. Giannozzi et al., J. Phys.:Condens. Matter 29 465901 (2017);
         "P. Giannozzi et al., J. Chem. Phys. 152 154105 (2020);
          URL http://www.quantum-espresso.org", 
     in publications or presentations arising from this work. More details at
     http://www.quantum-espresso.org/quote

     Parallel version (MPI & OpenMP), running on      14 processor cores
     Number of MPI processes:                 1
     Threads/MPI process:                    14

     MPI processes distributed on     1 nodes
     849076 MiB available memory on the printing compute node when the environment starts
 
     Reading input from pw.in

     Current dimensions of program PWSCF are:
     Max number of different atomic species (ntypx) = 10
     Max number of k-points (npk) =  40000
     Max angular momentum in pseudopotentials (lmaxx) =  4
     file Co.pbe-spn-kjpaw_psl.0.3.1.UPF: wavefunction(s)  3P 3D renormalized
     file O.pbe-n-kjpaw_psl.1.0.0.UPF: wavefunction(s)  2S 2P renormalized
 
     Subspace diagonalization in iterative solution of the eigenvalue problem:
     a serial algorithm will be used

 
     G-vector sticks info
     --------------------
     sticks:   dense  smooth     PW     G-vecs:    dense   smooth      PW
     Sum         931     475    139                81725    28863    4749
 
     Using Slab Decomposition
 


     bravais-lattice index     =            4
     lattice parameter (alat)  =       5.3290  a.u.
     unit-cell volume          =     460.1089 (a.u.)^3
     number of atoms/cell      =            4
     number of atomic types    =            3
     number of electrons       =        32.00
     number of Kohn-Sham states=           24
     kinetic-energy cutoff     =      60.0000  Ry
     charge density cutoff     =     480.0000  Ry
     scf convergence threshold =      1.0E-08
     mixing beta               =       0.3000
     number of iterations used =            8  plain     mixing
     Exchange-correlation= SLA  PW   PBX  PBC
                           (   1   4   3   4   0   0   0)

     GPU acceleration is ACTIVE.  1 visible GPUs per MPI rank
     GPU-aware MPI enabled


     GPU used by master process:

        Device Number: 0
        Device name: NVIDIA A100-SXM4-80GB
        Compute capability : 80
        Ratio of single to double precision performance  : 2
        Memory Clock Rate (KHz): 1593000
        Memory Bus Width (bits): 5120
        Peak Memory Bandwidth (GB/s): ******

     celldm(1)=   5.329028  celldm(2)=   0.000000  celldm(3)=   3.510638
     celldm(4)=   0.000000  celldm(5)=   0.000000  celldm(6)=   0.000000

     crystal axes: (cart. coord. in units of alat)
               a(1) = (   1.000000   0.000000   0.000000 )  
               a(2) = (  -0.500000   0.866025   0.000000 )  
               a(3) = (   0.000000   0.000000   3.510638 )  

     reciprocal axes: (cart. coord. in units 2 pi/alat)
               b(1) = (  1.000000  0.577350 -0.000000 )  
               b(2) = (  0.000000  1.154701  0.000000 )  
               b(3) = (  0.000000 -0.000000  0.284848 )  


     PseudoPot. # 1 for Co read from file:
     ../../pseudo/Co.pbe-spn-kjpaw_psl.0.3.1.UPF
     MD5 check sum: 3c0a43779828c046024e4f3be63f8e67
     Pseudo is Projector augmented-wave + core cor, Zval = 17.0
     Generated using &quot;atomic&quot; code by A. Dal Corso  v.6.2.2
     Shape of augmentation charge: PSQ
     Using radial grid of 1193 points,  6 beta functions with: 
                l(1) =   0
                l(2) =   0
                l(3) =   1
                l(4) =   1
                l(5) =   2
                l(6) =   2
     Q(r) pseudized with 0 coefficients 


     PseudoPot. # 2 for O  read from file:
     ../../pseudo/O.pbe-n-kjpaw_psl.1.0.0.UPF
     MD5 check sum: e99d9cef9b487d1ca56f5b95ecd0fd7a
     Pseudo is Projector augmented-wave + core cor, Zval =  6.0
     Generated using &quot;atomic&quot; code by A. Dal Corso  v.6.3
     Shape of augmentation charge: PSQ
     Using radial grid of 1095 points,  4 beta functions with: 
                l(1) =   0
                l(2) =   0
                l(3) =   1
                l(4) =   1
     Q(r) pseudized with 0 coefficients 


     PseudoPot. # 3 for Li read from file:
     ../../pseudo/Li.pbe-s-kjpaw_psl.1.0.0.UPF
     MD5 check sum: 3974953fb0fea6c4f83fb01d64ffc134
     Pseudo is Projector augmented-wave, Zval =  3.0
     Generated using &quot;atomic&quot; code by A. Dal Corso  v.6.3
     Shape of augmentation charge: PSQ
     Using radial grid of 1017 points,  4 beta functions with: 
                l(1) =   0
                l(2) =   0
                l(3) =   1
                l(4) =   1
     Q(r) pseudized with 0 coefficients 


     atomic species   valence    mass     pseudopotential
     Co               17.00    58.93300     Co( 1.00)
     O                 6.00    15.99900     O ( 1.00)
     Li                3.00     6.94100     Li( 1.00)

     Starting magnetic structure 
     atomic species   magnetization
     Co              0.300
     O               0.000
     Li              0.000

      6 Sym. Ops. (no inversion) found


                                    s                        frac. trans.

      isym =  1     identity                                     

 cryst.   s( 1) = (     1          0          0      )
                  (     0          1          0      )
                  (     0          0          1      )

 cart.    s( 1) = (  1.0000000  0.0000000  0.0000000 )
                  (  0.0000000  1.0000000  0.0000000 )
                  (  0.0000000  0.0000000  1.0000000 )


      isym =  2     120 deg rotation - cryst. axis [0,0,1]       

 cryst.   s( 2) = (     0          1          0      )
                  (    -1         -1          0      )
                  (     0          0          1      )

 cart.    s( 2) = ( -0.5000000 -0.8660254  0.0000000 )
                  (  0.8660254 -0.5000000  0.0000000 )
                  (  0.0000000  0.0000000  1.0000000 )


      isym =  3     120 deg rotation - cryst. axis [0,0,-1]      

 cryst.   s( 3) = (    -1         -1          0      )
                  (     1          0          0      )
                  (     0          0          1      )

 cart.    s( 3) = ( -0.5000000  0.8660254  0.0000000 )
                  ( -0.8660254 -0.5000000  0.0000000 )
                  (  0.0000000  0.0000000  1.0000000 )


      isym =  4     inv. 180 deg rotation - cart. axis [1,0,0]   

 cryst.   s( 4) = (    -1          0          0      )
                  (     1          1          0      )
                  (     0          0          1      )

 cart.    s( 4) = ( -1.0000000  0.0000000  0.0000000 )
                  (  0.0000000  1.0000000  0.0000000 )
                  (  0.0000000  0.0000000  1.0000000 )


      isym =  5     inv. 180 deg rotation - cryst. axis [0,1,0]  

 cryst.   s( 5) = (     1          1          0      )
                  (     0         -1          0      )
                  (     0          0          1      )

 cart.    s( 5) = (  0.5000000  0.8660254  0.0000000 )
                  (  0.8660254 -0.5000000  0.0000000 )
                  (  0.0000000  0.0000000  1.0000000 )


      isym =  6     inv. 180 deg rotation - cryst. axis [1,1,0]  

 cryst.   s( 6) = (     0         -1          0      )
                  (    -1          0          0      )
                  (     0          0          1      )

 cart.    s( 6) = (  0.5000000 -0.8660254  0.0000000 )
                  ( -0.8660254 -0.5000000  0.0000000 )
                  (  0.0000000  0.0000000  1.0000000 )


     point group C_3v (3m)  
     there are  3 classes
     the character table:

       E     2C3   3s_v 
A_1    1.00  1.00  1.00
A_2    1.00  1.00 -1.00
E      2.00 -1.00  0.00

     the symmetry operations in each class and the name of the first element:

     E        1
          identity                                               
     2C3      2    3
          120 deg rotation - cryst. axis [0,0,1]                 
     3s_v     4    5    6
          inv. 180 deg rotation - cart. axis [1,0,0]             

   Cartesian axes

     site n.     atom                  positions (alat units)
         1        Co     tau(   1) = (   0.0000000   0.0000000   0.0000000  )
         2        O      tau(   2) = (  -0.0000000   0.5773503   0.3404255  )
         3        O      tau(   3) = (   0.5000000   0.2886751   3.1702128  )
         4        Li     tau(   4) = (  -0.0000000   0.5773503   2.1099291  )

   Crystallographic axes

     site n.     atom                  positions (cryst. coord.)
         1        Co     tau(   1) = (  0.0000000  0.0000000  0.0000000  )
         2        O      tau(   2) = (  0.3333333  0.6666667  0.0969697  )
         3        O      tau(   3) = (  0.6666667  0.3333333  0.9030303  )
         4        Li     tau(   4) = (  0.3333333  0.6666667  0.6010101  )

     number of k points=    25  Marzari-Vanderbilt smearing, width (Ry)=  0.0200
                       cart. coord. in units 2pi/alat
        k(    1) = (   0.0000000   0.0000000   0.0000000), wk =   0.0052083
        k(    2) = (   0.0000000   0.0000000   0.0949495), wk =   0.0104167
        k(    3) = (   0.0000000   0.1443376   0.0000000), wk =   0.0312500
        k(    4) = (   0.0000000   0.1443376   0.0949495), wk =   0.0312500
        k(    5) = (   0.0000000   0.2886751   0.0000000), wk =   0.0312500
        k(    6) = (   0.0000000   0.2886751   0.0949495), wk =   0.0312500
        k(    7) = (   0.0000000   0.4330127   0.0000000), wk =   0.0312500
        k(    8) = (   0.0000000   0.4330127   0.0949495), wk =   0.0312500
        k(    9) = (   0.0000000  -0.5773503   0.0000000), wk =   0.0156250
        k(   10) = (   0.0000000  -0.5773503   0.0949495), wk =   0.0312500
        k(   11) = (   0.1250000   0.2165064   0.0000000), wk =   0.0312500
        k(   12) = (   0.1250000   0.2165064   0.0949495), wk =   0.0625000
        k(   13) = (   0.1250000   0.3608439   0.0000000), wk =   0.0625000
        k(   14) = (   0.1250000   0.3608439   0.0949495), wk =   0.0625000
        k(   15) = (   0.1250000   0.5051815   0.0000000), wk =   0.0625000
        k(   16) = (   0.1250000   0.5051815   0.0949495), wk =   0.0625000
        k(   17) = (   0.2500000   0.4330127   0.0000000), wk =   0.0312500
        k(   18) = (   0.2500000   0.4330127   0.0949495), wk =   0.0625000
        k(   19) = (   0.2500000   0.5773503   0.0000000), wk =   0.0312500
        k(   20) = (   0.2500000   0.5773503   0.0949495), wk =   0.0625000
        k(   21) = (   0.0000000  -0.1443376   0.0949495), wk =   0.0312500
        k(   22) = (   0.0000000  -0.2886751   0.0949495), wk =   0.0312500
        k(   23) = (   0.0000000  -0.4330127   0.0949495), wk =   0.0312500
        k(   24) = (  -0.1250000  -0.3608439   0.0949495), wk =   0.0625000
        k(   25) = (  -0.1250000  -0.5051815   0.0949495), wk =   0.0625000

                       cryst. coord.
        k(    1) = (   0.0000000   0.0000000   0.0000000), wk =   0.0052083
        k(    2) = (   0.0000000   0.0000000   0.3333333), wk =   0.0104167
        k(    3) = (   0.0000000   0.1250000   0.0000000), wk =   0.0312500
        k(    4) = (   0.0000000   0.1250000   0.3333333), wk =   0.0312500
        k(    5) = (   0.0000000   0.2500000   0.0000000), wk =   0.0312500
        k(    6) = (   0.0000000   0.2500000   0.3333333), wk =   0.0312500
        k(    7) = (   0.0000000   0.3750000   0.0000000), wk =   0.0312500
        k(    8) = (   0.0000000   0.3750000   0.3333333), wk =   0.0312500
        k(    9) = (   0.0000000  -0.5000000   0.0000000), wk =   0.0156250
        k(   10) = (   0.0000000  -0.5000000   0.3333333), wk =   0.0312500
        k(   11) = (   0.1250000   0.1250000   0.0000000), wk =   0.0312500
        k(   12) = (   0.1250000   0.1250000   0.3333333), wk =   0.0625000
        k(   13) = (   0.1250000   0.2500000   0.0000000), wk =   0.0625000
        k(   14) = (   0.1250000   0.2500000   0.3333333), wk =   0.0625000
        k(   15) = (   0.1250000   0.3750000   0.0000000), wk =   0.0625000
        k(   16) = (   0.1250000   0.3750000   0.3333333), wk =   0.0625000
        k(   17) = (   0.2500000   0.2500000   0.0000000), wk =   0.0312500
        k(   18) = (   0.2500000   0.2500000   0.3333333), wk =   0.0625000
        k(   19) = (   0.2500000   0.3750000   0.0000000), wk =   0.0312500
        k(   20) = (   0.2500000   0.3750000   0.3333333), wk =   0.0625000
        k(   21) = (   0.0000000  -0.1250000   0.3333333), wk =   0.0312500
        k(   22) = (   0.0000000  -0.2500000   0.3333333), wk =   0.0312500
        k(   23) = (   0.0000000  -0.3750000   0.3333333), wk =   0.0312500
        k(   24) = (  -0.1250000  -0.2500000   0.3333333), wk =   0.0625000
        k(   25) = (  -0.1250000  -0.3750000   0.3333333), wk =   0.0625000

     Dense  grid:    81725 G-vectors     FFT dimensions: (  40,  40, 135)

     Smooth grid:    28863 G-vectors     FFT dimensions: (  27,  27,  96)

     Dynamical RAM for                 wfc:       1.32 MB

     Dynamical RAM for     wfc (w. buffer):      67.44 MB

     Dynamical RAM for           str. fact:       3.74 MB

     Dynamical RAM for           local pot:       0.00 MB

     Dynamical RAM for          nlocal pot:       2.31 MB

     Dynamical RAM for                qrad:       5.27 MB

     Dynamical RAM for          rho,v,vnew:      17.37 MB

     Dynamical RAM for               rhoin:       5.79 MB

     Dynamical RAM for            rho*nmix:      39.90 MB

     Dynamical RAM for           G-vectors:       4.90 MB

     Dynamical RAM for          h,s,v(r/c):       0.11 MB

     Dynamical RAM for          <psi|beta>:       0.02 MB

     Dynamical RAM for                 psi:       2.64 MB

     Dynamical RAM for                hpsi:       2.64 MB

     Dynamical RAM for                spsi:       2.64 MB

     Dynamical RAM for      wfcinit/wfcrot:       2.66 MB

     Dynamical RAM for           addusdens:     235.69 MB

     Dynamical RAM for          addusforce:     238.20 MB

     Estimated static dynamical RAM per process >     121.70 MB

     Estimated max dynamical RAM per process >     399.80 MB

     Check: negative core charge=   -0.000006
     Generating pointlists ...
     new r_m :   0.2765 (alat units)  1.4733 (a.u.) for type    1
     new r_m :   0.2765 (alat units)  1.4733 (a.u.) for type    2
     new r_m :   0.4125 (alat units)  2.1982 (a.u.) for type    3

     Initial potential from superposition of free atoms

     starting charge      31.9951, renormalised to      32.0000
     Starting wfcs are   23 randomized atomic wfcs +    1 random wfcs
     Checking if some PAW data can be deallocated... 

     total cpu time spent up to now is        3.4 secs

     Self-consistent Calculation
[tb_dev] Currently allocated     6.36E-01 Mbytes, locked:    0 /   6
[tb_pin] Currently allocated     0.00E+00 Mbytes, locked:    0 /   0

     iteration #  1     ecut=    60.00 Ry     beta= 0.30
     Davidson diagonalization with overlap

---- Real-time Memory Report at c_bands before calling an iterative solver
           696 MiB given to the printing process from OS
             0 MiB allocation reported by mallinfo(arena+hblkhd)
        848964 MiB available memory on the node where the printing process lives
     GPU memory used/free/total (MiB): 1094 / 80056 / 81151
------------------
     ethr =  1.00E-02,  avg # of iterations =  8.7

     total cpu time spent up to now is        5.5 secs

     total energy              =    -474.19512349 Ry
     estimated scf accuracy    <       1.89174182 Ry

     total magnetization       =     4.42 Bohr mag/cell
     absolute magnetization    =     4.44 Bohr mag/cell
[tb_dev] Currently allocated     3.05E-05 Mbytes, locked:    0 /   2
[tb_pin] Currently allocated     0.00E+00 Mbytes, locked:    0 /   0

     iteration #  2     ecut=    60.00 Ry     beta= 0.30
     Davidson diagonalization with overlap

---- Real-time Memory Report at c_bands before calling an iterative solver
           740 MiB given to the printing process from OS
             0 MiB allocation reported by mallinfo(arena+hblkhd)
        848811 MiB available memory on the node where the printing process lives
     GPU memory used/free/total (MiB): 1114 / 80036 / 81151
------------------
     ethr =  5.91E-03,  avg # of iterations =  2.0

     total cpu time spent up to now is        6.6 secs

     total energy              =    -474.37248020 Ry
     estimated scf accuracy    <       4.15892339 Ry

     total magnetization       =     1.04 Bohr mag/cell
     absolute magnetization    =     1.10 Bohr mag/cell
[tb_dev] Currently allocated     3.05E-05 Mbytes, locked:    0 /   2
[tb_pin] Currently allocated     0.00E+00 Mbytes, locked:    0 /   0

     iteration #  3     ecut=    60.00 Ry     beta= 0.30
     Davidson diagonalization with overlap

---- Real-time Memory Report at c_bands before calling an iterative solver
           743 MiB given to the printing process from OS
             0 MiB allocation reported by mallinfo(arena+hblkhd)
        848829 MiB available memory on the node where the printing process lives
     GPU memory used/free/total (MiB): 1114 / 80036 / 81151
------------------
     ethr =  5.91E-03,  avg # of iterations =  1.1

     total cpu time spent up to now is        7.6 secs

     total energy              =    -474.76562280 Ry
     estimated scf accuracy    <       0.57716441 Ry

     total magnetization       =     2.68 Bohr mag/cell
     absolute magnetization    =     2.81 Bohr mag/cell
[tb_dev] Currently allocated     3.05E-05 Mbytes, locked:    0 /   2
[tb_pin] Currently allocated     0.00E+00 Mbytes, locked:    0 /   0

     iteration #  4     ecut=    60.00 Ry     beta= 0.30
     Davidson diagonalization with overlap

---- Real-time Memory Report at c_bands before calling an iterative solver
           744 MiB given to the printing process from OS
             0 MiB allocation reported by mallinfo(arena+hblkhd)
        848493 MiB available memory on the node where the printing process lives
     GPU memory used/free/total (MiB): 1114 / 80036 / 81151
------------------
     ethr =  1.80E-03,  avg # of iterations =  1.8

     total cpu time spent up to now is        8.8 secs

     total energy              =    -474.83758690 Ry
     estimated scf accuracy    <       0.76148934 Ry

     total magnetization       =     1.81 Bohr mag/cell
     absolute magnetization    =     1.89 Bohr mag/cell
[tb_dev] Currently allocated     3.05E-05 Mbytes, locked:    0 /   2
[tb_pin] Currently allocated     0.00E+00 Mbytes, locked:    0 /   0

     iteration #  5     ecut=    60.00 Ry     beta= 0.30
     Davidson diagonalization with overlap

---- Real-time Memory Report at c_bands before calling an iterative solver
           746 MiB given to the printing process from OS
             0 MiB allocation reported by mallinfo(arena+hblkhd)
        848507 MiB available memory on the node where the printing process lives
     GPU memory used/free/total (MiB): 1114 / 80036 / 81151
------------------
     ethr =  1.80E-03,  avg # of iterations =  1.1

     total cpu time spent up to now is        9.8 secs

     total energy              =    -474.88606850 Ry
     estimated scf accuracy    <       0.21082425 Ry

     total magnetization       =     1.87 Bohr mag/cell
     absolute magnetization    =     1.99 Bohr mag/cell
[tb_dev] Currently allocated     3.05E-05 Mbytes, locked:    0 /   2
[tb_pin] Currently allocated     0.00E+00 Mbytes, locked:    0 /   0

     iteration #  6     ecut=    60.00 Ry     beta= 0.30
     Davidson diagonalization with overlap

---- Real-time Memory Report at c_bands before calling an iterative solver
           749 MiB given to the printing process from OS
             0 MiB allocation reported by mallinfo(arena+hblkhd)
        848482 MiB available memory on the node where the printing process lives
     GPU memory used/free/total (MiB): 1114 / 80036 / 81151
------------------
     ethr =  6.59E-04,  avg # of iterations =  1.5

     total cpu time spent up to now is       10.9 secs

     total energy              =    -474.93110610 Ry
     estimated scf accuracy    <       0.27175852 Ry

     total magnetization       =     1.25 Bohr mag/cell
     absolute magnetization    =     1.60 Bohr mag/cell
[tb_dev] Currently allocated     3.05E-05 Mbytes, locked:    0 /   2
[tb_pin] Currently allocated     0.00E+00 Mbytes, locked:    0 /   0

     iteration #  7     ecut=    60.00 Ry     beta= 0.30
     Davidson diagonalization with overlap

---- Real-time Memory Report at c_bands before calling an iterative solver
           750 MiB given to the printing process from OS
             0 MiB allocation reported by mallinfo(arena+hblkhd)
        848461 MiB available memory on the node where the printing process lives
     GPU memory used/free/total (MiB): 1114 / 80036 / 81151
------------------
     ethr =  6.59E-04,  avg # of iterations =  1.7

     total cpu time spent up to now is       12.0 secs

     total energy              =    -474.97362915 Ry
     estimated scf accuracy    <       0.04023900 Ry

     total magnetization       =     0.75 Bohr mag/cell
     absolute magnetization    =     1.04 Bohr mag/cell
[tb_dev] Currently allocated     3.05E-05 Mbytes, locked:    0 /   2
[tb_pin] Currently allocated     0.00E+00 Mbytes, locked:    0 /   0

     iteration #  8     ecut=    60.00 Ry     beta= 0.30
     Davidson diagonalization with overlap

---- Real-time Memory Report at c_bands before calling an iterative solver
           753 MiB given to the printing process from OS
             0 MiB allocation reported by mallinfo(arena+hblkhd)
        848451 MiB available memory on the node where the printing process lives
     GPU memory used/free/total (MiB): 1114 / 80036 / 81151
------------------
     ethr =  1.26E-04,  avg # of iterations =  6.7

     total cpu time spent up to now is       13.8 secs

     total energy              =    -474.98000071 Ry
     estimated scf accuracy    <       0.01244114 Ry

     total magnetization       =     0.69 Bohr mag/cell
     absolute magnetization    =     0.76 Bohr mag/cell
[tb_dev] Currently allocated     3.05E-05 Mbytes, locked:    0 /   2
[tb_pin] Currently allocated     0.00E+00 Mbytes, locked:    0 /   0

     iteration #  9     ecut=    60.00 Ry     beta= 0.30
     Davidson diagonalization with overlap

---- Real-time Memory Report at c_bands before calling an iterative solver
           754 MiB given to the printing process from OS
             0 MiB allocation reported by mallinfo(arena+hblkhd)
        848463 MiB available memory on the node where the printing process lives
     GPU memory used/free/total (MiB): 1114 / 80036 / 81151
------------------
     ethr =  3.89E-05,  avg # of iterations =  4.9

     total cpu time spent up to now is       15.3 secs

     total energy              =    -474.98500619 Ry
     estimated scf accuracy    <       0.01439250 Ry

     total magnetization       =     0.88 Bohr mag/cell
     absolute magnetization    =     0.95 Bohr mag/cell
[tb_dev] Currently allocated     3.05E-05 Mbytes, locked:    0 /   2
[tb_pin] Currently allocated     0.00E+00 Mbytes, locked:    0 /   0

     iteration # 10     ecut=    60.00 Ry     beta= 0.30
     Davidson diagonalization with overlap

---- Real-time Memory Report at c_bands before calling an iterative solver
           755 MiB given to the printing process from OS
             0 MiB allocation reported by mallinfo(arena+hblkhd)
        848418 MiB available memory on the node where the printing process lives
     GPU memory used/free/total (MiB): 1114 / 80036 / 81151
------------------
     ethr =  3.89E-05,  avg # of iterations =  1.4

     total cpu time spent up to now is       16.4 secs

     total energy              =    -474.98624141 Ry
     estimated scf accuracy    <       0.00472608 Ry

     total magnetization       =     0.77 Bohr mag/cell
     absolute magnetization    =     0.84 Bohr mag/cell
[tb_dev] Currently allocated     3.05E-05 Mbytes, locked:    0 /   2
[tb_pin] Currently allocated     0.00E+00 Mbytes, locked:    0 /   0

     iteration # 11     ecut=    60.00 Ry     beta= 0.30
     Davidson diagonalization with overlap

---- Real-time Memory Report at c_bands before calling an iterative solver
           755 MiB given to the printing process from OS
             0 MiB allocation reported by mallinfo(arena+hblkhd)
        848395 MiB available memory on the node where the printing process lives
     GPU memory used/free/total (MiB): 1114 / 80036 / 81151
------------------
     ethr =  1.48E-05,  avg # of iterations =  2.1

     total cpu time spent up to now is       17.5 secs

     total energy              =    -474.98699240 Ry
     estimated scf accuracy    <       0.00118074 Ry

     total magnetization       =     0.80 Bohr mag/cell
     absolute magnetization    =     0.86 Bohr mag/cell
[tb_dev] Currently allocated     3.05E-05 Mbytes, locked:    0 /   2
[tb_pin] Currently allocated     0.00E+00 Mbytes, locked:    0 /   0

     iteration # 12     ecut=    60.00 Ry     beta= 0.30
     Davidson diagonalization with overlap

---- Real-time Memory Report at c_bands before calling an iterative solver
           755 MiB given to the printing process from OS
             0 MiB allocation reported by mallinfo(arena+hblkhd)
        848388 MiB available memory on the node where the printing process lives
     GPU memory used/free/total (MiB): 1114 / 80036 / 81151
------------------
     c_bands:  1 eigenvalues not converged
     ethr =  3.69E-06,  avg # of iterations =  5.6

     total cpu time spent up to now is       19.2 secs

     total energy              =    -474.98758627 Ry
     estimated scf accuracy    <       0.00020766 Ry

     total magnetization       =     0.81 Bohr mag/cell
     absolute magnetization    =     0.87 Bohr mag/cell
[tb_dev] Currently allocated     3.05E-05 Mbytes, locked:    0 /   2
[tb_pin] Currently allocated     0.00E+00 Mbytes, locked:    0 /   0

     iteration # 13     ecut=    60.00 Ry     beta= 0.30
     Davidson diagonalization with overlap

---- Real-time Memory Report at c_bands before calling an iterative solver
           755 MiB given to the printing process from OS
             0 MiB allocation reported by mallinfo(arena+hblkhd)
        848355 MiB available memory on the node where the printing process lives
     GPU memory used/free/total (MiB): 1114 / 80036 / 81151
------------------
     c_bands:  1 eigenvalues not converged
     ethr =  6.49E-07,  avg # of iterations =  5.2

     total cpu time spent up to now is       20.7 secs

     total energy              =    -474.98769181 Ry
     estimated scf accuracy    <       0.00108570 Ry

     total magnetization       =     0.81 Bohr mag/cell
     absolute magnetization    =     0.90 Bohr mag/cell
[tb_dev] Currently allocated     3.05E-05 Mbytes, locked:    0 /   2
[tb_pin] Currently allocated     0.00E+00 Mbytes, locked:    0 /   0

     iteration # 14     ecut=    60.00 Ry     beta= 0.30
     Davidson diagonalization with overlap

---- Real-time Memory Report at c_bands before calling an iterative solver
           755 MiB given to the printing process from OS
             0 MiB allocation reported by mallinfo(arena+hblkhd)
        848314 MiB available memory on the node where the printing process lives
     GPU memory used/free/total (MiB): 1114 / 80036 / 81151
------------------
     ethr =  6.49E-07,  avg # of iterations =  2.8

     total cpu time spent up to now is       22.0 secs

     total energy              =    -474.98776376 Ry
     estimated scf accuracy    <       0.00008200 Ry

     total magnetization       =     0.79 Bohr mag/cell
     absolute magnetization    =     0.89 Bohr mag/cell
[tb_dev] Currently allocated     3.05E-05 Mbytes, locked:    0 /   2
[tb_pin] Currently allocated     0.00E+00 Mbytes, locked:    0 /   0

     iteration # 15     ecut=    60.00 Ry     beta= 0.30
     Davidson diagonalization with overlap

---- Real-time Memory Report at c_bands before calling an iterative solver
           755 MiB given to the printing process from OS
             0 MiB allocation reported by mallinfo(arena+hblkhd)
        848305 MiB available memory on the node where the printing process lives
     GPU memory used/free/total (MiB): 1114 / 80036 / 81151
------------------
     ethr =  2.56E-07,  avg # of iterations =  3.7

     total cpu time spent up to now is       23.4 secs

     total energy              =    -474.98778501 Ry
     estimated scf accuracy    <       0.00003215 Ry

     total magnetization       =     0.78 Bohr mag/cell
     absolute magnetization    =     0.89 Bohr mag/cell
[tb_dev] Currently allocated     3.05E-05 Mbytes, locked:    0 /   2
[tb_pin] Currently allocated     0.00E+00 Mbytes, locked:    0 /   0

     iteration # 16     ecut=    60.00 Ry     beta= 0.30
     Davidson diagonalization with overlap

---- Real-time Memory Report at c_bands before calling an iterative solver
           756 MiB given to the printing process from OS
             0 MiB allocation reported by mallinfo(arena+hblkhd)
        848284 MiB available memory on the node where the printing process lives
     GPU memory used/free/total (MiB): 1114 / 80036 / 81151
------------------
     ethr =  1.00E-07,  avg # of iterations =  4.1

     total cpu time spent up to now is       24.9 secs

     total energy              =    -474.98779652 Ry
     estimated scf accuracy    <       0.00000905 Ry

     total magnetization       =     0.77 Bohr mag/cell
     absolute magnetization    =     0.90 Bohr mag/cell
[tb_dev] Currently allocated     3.05E-05 Mbytes, locked:    0 /   2
[tb_pin] Currently allocated     0.00E+00 Mbytes, locked:    0 /   0

     iteration # 17     ecut=    60.00 Ry     beta= 0.30
     Davidson diagonalization with overlap

---- Real-time Memory Report at c_bands before calling an iterative solver
           757 MiB given to the printing process from OS
             0 MiB allocation reported by mallinfo(arena+hblkhd)
        848268 MiB available memory on the node where the printing process lives
     GPU memory used/free/total (MiB): 1114 / 80036 / 81151
------------------
     ethr =  2.83E-08,  avg # of iterations =  4.4

     total cpu time spent up to now is       26.4 secs

     total energy              =    -474.98780246 Ry
     estimated scf accuracy    <       0.00000089 Ry

     total magnetization       =     0.77 Bohr mag/cell
     absolute magnetization    =     0.90 Bohr mag/cell
[tb_dev] Currently allocated     3.05E-05 Mbytes, locked:    0 /   2
[tb_pin] Currently allocated     0.00E+00 Mbytes, locked:    0 /   0

     iteration # 18     ecut=    60.00 Ry     beta= 0.30
     Davidson diagonalization with overlap

---- Real-time Memory Report at c_bands before calling an iterative solver
           757 MiB given to the printing process from OS
             0 MiB allocation reported by mallinfo(arena+hblkhd)
        848250 MiB available memory on the node where the printing process lives
     GPU memory used/free/total (MiB): 1114 / 80036 / 81151
------------------
     ethr =  2.78E-09,  avg # of iterations =  6.6

     total cpu time spent up to now is       28.1 secs

     total energy              =    -474.98780699 Ry
     estimated scf accuracy    <       0.00000046 Ry

     total magnetization       =     0.77 Bohr mag/cell
     absolute magnetization    =     0.90 Bohr mag/cell
[tb_dev] Currently allocated     3.05E-05 Mbytes, locked:    0 /   2
[tb_pin] Currently allocated     0.00E+00 Mbytes, locked:    0 /   0

     iteration # 19     ecut=    60.00 Ry     beta= 0.30
     Davidson diagonalization with overlap

---- Real-time Memory Report at c_bands before calling an iterative solver
           757 MiB given to the printing process from OS
             0 MiB allocation reported by mallinfo(arena+hblkhd)
        848203 MiB available memory on the node where the printing process lives
     GPU memory used/free/total (MiB): 1114 / 80036 / 81151
------------------
     ethr =  1.44E-09,  avg # of iterations =  3.3

     total cpu time spent up to now is       29.5 secs

     total energy              =    -474.98781131 Ry
     estimated scf accuracy    <       0.00000018 Ry

     total magnetization       =     0.76 Bohr mag/cell
     absolute magnetization    =     0.91 Bohr mag/cell
[tb_dev] Currently allocated     3.05E-05 Mbytes, locked:    0 /   2
[tb_pin] Currently allocated     0.00E+00 Mbytes, locked:    0 /   0

     iteration # 20     ecut=    60.00 Ry     beta= 0.30
     Davidson diagonalization with overlap

---- Real-time Memory Report at c_bands before calling an iterative solver
           757 MiB given to the printing process from OS
             0 MiB allocation reported by mallinfo(arena+hblkhd)
        848224 MiB available memory on the node where the printing process lives
     GPU memory used/free/total (MiB): 1114 / 80036 / 81151
------------------
     ethr =  5.75E-10,  avg # of iterations =  4.2

     total cpu time spent up to now is       30.9 secs

     total energy              =    -474.98781319 Ry
     estimated scf accuracy    <       0.00000013 Ry

     total magnetization       =     0.76 Bohr mag/cell
     absolute magnetization    =     0.91 Bohr mag/cell
[tb_dev] Currently allocated     3.05E-05 Mbytes, locked:    0 /   2
[tb_pin] Currently allocated     0.00E+00 Mbytes, locked:    0 /   0

     iteration # 21     ecut=    60.00 Ry     beta= 0.30
     Davidson diagonalization with overlap

---- Real-time Memory Report at c_bands before calling an iterative solver
           757 MiB given to the printing process from OS
             0 MiB allocation reported by mallinfo(arena+hblkhd)
        848198 MiB available memory on the node where the printing process lives
     GPU memory used/free/total (MiB): 1114 / 80036 / 81151
------------------
     ethr =  3.99E-10,  avg # of iterations =  4.5

     total cpu time spent up to now is       32.5 secs

     total energy              =    -474.98781695 Ry
     estimated scf accuracy    <       0.00000046 Ry

     total magnetization       =     0.75 Bohr mag/cell
     absolute magnetization    =     0.92 Bohr mag/cell
[tb_dev] Currently allocated     3.05E-05 Mbytes, locked:    0 /   2
[tb_pin] Currently allocated     0.00E+00 Mbytes, locked:    0 /   0

     iteration # 22     ecut=    60.00 Ry     beta= 0.30
     Davidson diagonalization with overlap

---- Real-time Memory Report at c_bands before calling an iterative solver
           757 MiB given to the printing process from OS
             0 MiB allocation reported by mallinfo(arena+hblkhd)
        848174 MiB available memory on the node where the printing process lives
     GPU memory used/free/total (MiB): 1114 / 80036 / 81151
------------------
     ethr =  3.99E-10,  avg # of iterations =  2.5

     total cpu time spent up to now is       33.7 secs

     total energy              =    -474.98781757 Ry
     estimated scf accuracy    <       0.00000004 Ry

     total magnetization       =     0.75 Bohr mag/cell
     absolute magnetization    =     0.92 Bohr mag/cell
[tb_dev] Currently allocated     3.05E-05 Mbytes, locked:    0 /   2
[tb_pin] Currently allocated     0.00E+00 Mbytes, locked:    0 /   0

     iteration # 23     ecut=    60.00 Ry     beta= 0.30
     Davidson diagonalization with overlap

---- Real-time Memory Report at c_bands before calling an iterative solver
           757 MiB given to the printing process from OS
             0 MiB allocation reported by mallinfo(arena+hblkhd)
        848155 MiB available memory on the node where the printing process lives
     GPU memory used/free/total (MiB): 1114 / 80036 / 81151
------------------
     ethr =  1.31E-10,  avg # of iterations =  4.5

     total cpu time spent up to now is       35.2 secs

     total energy              =    -474.98781789 Ry
     estimated scf accuracy    <       0.00000001 Ry

     total magnetization       =     0.75 Bohr mag/cell
     absolute magnetization    =     0.93 Bohr mag/cell
[tb_dev] Currently allocated     3.05E-05 Mbytes, locked:    0 /   2
[tb_pin] Currently allocated     0.00E+00 Mbytes, locked:    0 /   0

     iteration # 24     ecut=    60.00 Ry     beta= 0.30
     Davidson diagonalization with overlap

---- Real-time Memory Report at c_bands before calling an iterative solver
           757 MiB given to the printing process from OS
             0 MiB allocation reported by mallinfo(arena+hblkhd)
        848147 MiB available memory on the node where the printing process lives
     GPU memory used/free/total (MiB): 1114 / 80036 / 81151
------------------
     ethr =  4.19E-11,  avg # of iterations =  4.9
 
     Magnetic moment per site  (integrated on atomic sphere of radius R)
     atom   1 (R=0.276)  charge= 14.0143  magn=  0.6204
     atom   2 (R=0.276)  charge=  5.1504  magn=  0.0810
     atom   3 (R=0.276)  charge=  5.1706  magn=  0.0658
     atom   4 (R=0.413)  charge=  2.3341  magn= -0.0405

     total cpu time spent up to now is       36.8 secs

     End of self-consistent calculation

 ------ SPIN UP ------------


          k = 0.0000 0.0000 0.0000 (  3635 PWs)   bands (ev):

   -93.1568 -56.3960 -56.3506 -56.3506 -44.3614 -16.8615 -14.7972  -3.0894
    -2.5714  -2.5714   0.4452   1.0488   1.0488   1.3840   1.3931   1.3931
     2.4938   4.8265   5.2817   5.2817   8.8065  12.1926  12.5206  15.2230

     occupation numbers 
     1.0000   1.0000   1.0000   1.0000   1.0000   1.0000   1.0000   1.0000
     1.0000   1.0000   1.0000   1.0000   1.0000   1.0000   1.0000   1.0000
     1.0832   0.0000   0.0000   0.0000   0.0000   0.0000   0.0000   0.0000

          k = 0.0000 0.0000 0.0949 (  3682 PWs)   bands (ev):

   -93.1568 -56.3962 -56.3507 -56.3507 -44.3615 -16.8616 -14.7972  -3.0883
    -2.5714  -2.5714   0.3917   1.0488   1.0488   1.3929   1.3929   1.4941
     2.4536   4.7485   5.2815   5.2815   9.1506  11.1748  13.2347  15.4232

     occupation numbers 
     1.0000   1.0000   1.0000   1.0000   1.0000   1.0000   1.0000   1.0000
     1.0000   1.0000   1.0000   1.0000   1.0000   1.0000   1.0000   1.0000
     1.0800   0.0000   0.0000   0.0000   0.0000   0.0000   0.0000   0.0000

          k = 0.0000 0.1443 0.0000 (  3637 PWs)   bands (ev):

   -93.1558 -56.3945 -56.3613 -56.3531 -44.3572 -16.6707 -14.8015  -2.9007
    -2.7299  -2.4484   0.0436   0.4336   0.8159   1.5250   1.6794   1.9001
     2.5767   4.7027   5.1765   5.2852   9.2453  12.6932  12.9885  15.5301

     occupation numbers 
     1.0000   1.0000   1.0000   1.0000   1.0000   1.0000   1.0000   1.0000
     1.0000   1.0000   1.0000   1.0000   1.0000   1.0000   1.0000   1.0001
     1.0495   0.0000   0.0000   0.0000   0.0000   0.0000   0.0000   0.0000

          k = 0.0000 0.1443 0.0949 (  3638 PWs)   bands (ev):

   -93.1558 -56.3945 -56.3613 -56.3532 -44.3572 -16.6707 -14.8015  -2.8999
    -2.7298  -2.4484   0.0440   0.4336   0.7674   1.5346   1.7711   1.9001
     2.5325   4.7500   5.1765   5.1766   9.5371  11.6975  13.8744  15.4479

     occupation numbers 
     1.0000   1.0000   1.0000   1.0000   1.0000   1.0000   1.0000   1.0000
     1.0000   1.0000   1.0000   1.0000   1.0000   1.0000   1.0000   1.0001
     1.0756   0.0000   0.0000   0.0000   0.0000   0.0000   0.0000   0.0000

          k = 0.0000 0.2887 0.0000 (  3607 PWs)   bands (ev):

   -93.1532 -56.3907 -56.3871 -56.3592 -44.3470 -16.1694 -14.8251  -3.0398
    -2.3376  -2.1635  -1.3648  -0.1300   1.1629   1.6697   2.1077   2.1593
     2.5570   4.1601   5.0516   6.2371  10.2923  12.5693  14.0434  14.4625

     occupation numbers 
     1.0000   1.0000   1.0000   1.0000   1.0000   1.0000   1.0000   1.0000
     1.0000   1.0000   1.0000   1.0000   1.0000   1.0000   1.0033   1.0069
     1.0637   0.0000   0.0000   0.0000   0.0000   0.0000   0.0000   0.0000

          k = 0.0000 0.2887 0.0949 (  3619 PWs)   bands (ev):

   -93.1532 -56.3908 -56.3871 -56.3592 -44.3470 -16.1694 -14.8251  -3.0401
    -2.3369  -2.1635  -1.3644  -0.1300   1.1554   1.6560   2.1077   2.2153
     2.5097   4.2033   5.0516   6.1709  10.4652  12.3819  13.6070  15.1877

     occupation numbers 
     1.0000   1.0000   1.0000   1.0000   1.0000   1.0000   1.0000   1.0000
     1.0000   1.0000   1.0000   1.0000   1.0000   1.0000   1.0033   1.0138
     1.0815   0.0000   0.0000   0.0000   0.0000   0.0000   0.0000   0.0000

          k = 0.0000 0.4330 0.0000 (  3602 PWs)   bands (ev):

   -93.1507 -56.4133 -56.3866 -56.3653 -44.3368 -15.5691 -14.8977  -3.4994
    -2.3499  -1.9633  -1.3227  -0.2478   0.6482   1.5492   1.8110   2.1148
     3.3481   4.4221   5.0959   7.8679   9.5676  12.2680  13.8293  14.8483

     occupation numbers 
     1.0000   1.0000   1.0000   1.0000   1.0000   1.0000   1.0000   1.0000
     1.0000   1.0000   1.0000   1.0000   1.0000   1.0000   1.0000   1.0037
     0.0012   0.0000   0.0000   0.0000   0.0000   0.0000   0.0000   0.0000

          k = 0.0000 0.4330 0.0949 (  3600 PWs)   bands (ev):

   -93.1507 -56.4134 -56.3866 -56.3653 -44.3368 -15.5691 -14.8977  -3.4994
    -2.3500  -1.9633  -1.3223  -0.2478   0.6484   1.5490   1.8110   2.1155
     3.3336   4.4443   5.0959   7.8456   9.5703  12.3261  13.9969  14.4347

     occupation numbers 
     1.0000   1.0000   1.0000   1.0000   1.0000   1.0000   1.0000   1.0000
     1.0000   1.0000   1.0000   1.0000   1.0000   1.0000   1.0000   1.0037
     0.0016   0.0000   0.0000   0.0000   0.0000   0.0000   0.0000   0.0000

          k = 0.0000-0.5774 0.0000 (  3610 PWs)   bands (ev):

   -93.1497 -56.4241 -56.3850 -56.3679 -44.3326 -15.1948 -15.0339  -3.9101
    -2.1394  -1.9346  -1.1683  -0.1241   0.4005   1.2761   1.5410   2.0316
     4.0907   4.6755   5.1492   8.1208   9.8263  11.2270  14.2056  14.6476

     occupation numbers 
     1.0000   1.0000   1.0000   1.0000   1.0000   1.0000   1.0000   1.0000
     1.0000   1.0000   1.0000   1.0000   1.0000   1.0000   1.0000   1.0010
     0.0000   0.0000   0.0000   0.0000   0.0000   0.0000   0.0000   0.0000

          k = 0.0000-0.5774 0.0949 (  3582 PWs)   bands (ev):

   -93.1497 -56.4241 -56.3849 -56.3678 -44.3325 -15.1947 -15.0339  -3.9101
    -2.1394  -1.9345  -1.1681  -0.1240   0.4008   1.2760   1.5410   2.0316
     4.0923   4.6722   5.1492   8.1197   9.8350  11.2724  13.9248  14.6570

     occupation numbers 
     1.0000   1.0000   1.0000   1.0000   1.0000   1.0000   1.0000   1.0000
     1.0000   1.0000   1.0000   1.0000   1.0000   1.0000   1.0000   1.0010
     0.0000   0.0000   0.0000   0.0000   0.0000   0.0000   0.0000   0.0000

          k = 0.1250 0.2165 0.0000 (  3623 PWs)   bands (ev):

   -93.1540 -56.3917 -56.3784 -56.3587 -44.3500 -16.3242 -14.8147  -2.9482
    -2.4743  -2.2861  -0.8309  -0.3043   1.2160   1.6150   1.9582   2.2566
     2.5474   4.3577   4.8926   5.9260  10.0044  13.1952  13.8432  14.2856

     occupation numbers 
     1.0000   1.0000   1.0000   1.0000   1.0000   1.0000   1.0000   1.0000
     1.0000   1.0000   1.0000   1.0000   1.0000   1.0000   1.0003   1.0216
     1.0691   0.0000   0.0000   0.0000   0.0000   0.0000   0.0000   0.0000

          k = 0.1250 0.2165 0.0949 (  3623 PWs)   bands (ev):

   -93.1540 -56.3917 -56.3784 -56.3586 -44.3500 -16.3242 -14.8147  -2.9485
    -2.4736  -2.2860  -0.8305  -0.3043   1.1904   1.6145   1.9889   2.2904
     2.5103   4.3903   4.8753   5.8794  10.1749  12.5416  14.2589  14.6761

     occupation numbers 
     1.0000   1.0000   1.0000   1.0000   1.0000   1.0000   1.0000   1.0000
     1.0000   1.0000   1.0000   1.0000   1.0000   1.0000   1.0005   1.0300
     1.0814   0.0000   0.0000   0.0000   0.0000   0.0000   0.0000   0.0000

          k = 0.1250 0.3608 0.0000 (  3612 PWs)   bands (ev):

   -93.1515 -56.4018 -56.3878 -56.3674 -44.3398 -15.7731 -14.8552  -3.0775
    -2.5152  -1.8950  -1.4212  -0.7136   0.9692   1.6441   1.9893   2.3412
     3.0065   4.3479   4.7865   7.2349  10.6804  11.6076  13.4966  14.9951

     occupation numbers 
     1.0000   1.0000   1.0000   1.0000   1.0000   1.0000   1.0000   1.0000
     1.0000   1.0000   1.0000   1.0000   1.0000   1.0000   1.0005   1.0456
     0.1390   0.0000   0.0000   0.0000   0.0000   0.0000   0.0000   0.0000

          k = 0.1250 0.3608 0.0949 (  3609 PWs)   bands (ev):

   -93.1515 -56.4018 -56.3878 -56.3675 -44.3398 -15.7730 -14.8552  -3.0777
    -2.5152  -1.8948  -1.4207  -0.7135   0.9684   1.6441   1.9917   2.3370
     2.9989   4.3753   4.7785   7.2143  10.6868  11.6679  13.3771  14.8781

     occupation numbers 
     1.0000   1.0000   1.0000   1.0000   1.0000   1.0000   1.0000   1.0000
     1.0000   1.0000   1.0000   1.0000   1.0000   1.0000   1.0005   1.0442
     0.1494   0.0000   0.0000   0.0000   0.0000   0.0000   0.0000   0.0000

          k = 0.1250 0.5052 0.0000 (  3591 PWs)   bands (ev):

   -93.1497 -56.4182 -56.3849 -56.3738 -44.3325 -15.2779 -14.9523  -3.6020
    -2.5345  -1.6406  -1.1235  -0.7012   0.3519   1.3974   1.7041   2.2465
     4.0984   4.6217   4.8886   8.3553   9.3037  12.4107  12.7664  14.0657

     occupation numbers 
     1.0000   1.0000   1.0000   1.0000   1.0000   1.0000   1.0000   1.0000
     1.0000   1.0000   1.0000   1.0000   1.0000   1.0000   1.0000   1.0195
     0.0000   0.0000   0.0000   0.0000   0.0000   0.0000   0.0000   0.0000

          k = 0.1250 0.5052 0.0949 (  3600 PWs)   bands (ev):

   -93.1497 -56.4182 -56.3850 -56.3738 -44.3326 -15.2779 -14.9523  -3.6020
    -2.5345  -1.6407  -1.1233  -0.7012   0.3520   1.3974   1.7042   2.2461
     4.0933   4.6290   4.8867   8.3511   9.3082  12.4095  12.7965  14.1211

     occupation numbers 
     1.0000   1.0000   1.0000   1.0000   1.0000   1.0000   1.0000   1.0000
     1.0000   1.0000   1.0000   1.0000   1.0000   1.0000   1.0000   1.0194
     0.0000   0.0000   0.0000   0.0000   0.0000   0.0000   0.0000   0.0000

          k = 0.2500 0.4330 0.0000 (  3605 PWs)   bands (ev):

   -93.1497 -56.4100 -56.3852 -56.3819 -44.3326 -15.3316 -14.9002  -3.0220
    -2.8726  -1.8010  -1.1662  -0.9951   0.3619   1.4699   1.8232   2.4505
     4.1005   4.5303   4.6530   8.7302   8.9440  11.7400  13.5602  14.7021

     occupation numbers 
     1.0000   1.0000   1.0000   1.0000   1.0000   1.0000   1.0000   1.0000
     1.0000   1.0000   1.0000   1.0000   1.0000   1.0000   1.0000   1.0795
     0.0000   0.0000   0.0000   0.0000   0.0000   0.0000   0.0000   0.0000

          k = 0.2500 0.4330 0.0949 (  3614 PWs)   bands (ev):

   -93.1497 -56.4101 -56.3852 -56.3819 -44.3326 -15.3316 -14.9003  -3.0221
    -2.8726  -1.8011  -1.1662  -0.9950   0.3618   1.4700   1.8234   2.4493
     4.1051   4.5184   4.6595   8.7315   8.9572  11.7074  13.5511  14.7155

     occupation numbers 
     1.0000   1.0000   1.0000   1.0000   1.0000   1.0000   1.0000   1.0000
     1.0000   1.0000   1.0000   1.0000   1.0000   1.0000   1.0000   1.0792
     0.0000   0.0000   0.0000   0.0000   0.0000   0.0000   0.0000   0.0000

          k = 0.2500 0.5774 0.0000 (  3600 PWs)   bands (ev):

   -93.1489 -56.4106 -56.3908 -56.3839 -44.3296 -15.1115 -14.9451  -3.1827
    -2.7925  -1.9733  -0.9927  -0.7566  -0.1009   1.1540   2.0533   2.3392
     4.5424   4.5450   5.3386   7.1467  10.6846  11.7017  12.3831  14.7864

     occupation numbers 
     1.0000   1.0000   1.0000   1.0000   1.0000   1.0000   1.0000   1.0000
     1.0000   1.0000   1.0000   1.0000   1.0000   1.0000   1.0014   1.0449
     0.0000   0.0000   0.0000   0.0000   0.0000   0.0000   0.0000   0.0000

          k = 0.2500 0.5774 0.0949 (  3599 PWs)   bands (ev):

   -93.1489 -56.4106 -56.3909 -56.3838 -44.3296 -15.1115 -14.9451  -3.1827
    -2.7925  -1.9734  -0.9926  -0.7566  -0.1009   1.1540   2.0533   2.3391
     4.5436   4.5462   5.3353   7.1456  10.6963  11.6905  12.4104  14.7871

     occupation numbers 
     1.0000   1.0000   1.0000   1.0000   1.0000   1.0000   1.0000   1.0000
     1.0000   1.0000   1.0000   1.0000   1.0000   1.0000   1.0014   1.0449
     0.0000   0.0000   0.0000   0.0000   0.0000   0.0000   0.0000   0.0000

          k = 0.0000-0.1443 0.0949 (  3638 PWs)   bands (ev):

   -93.1558 -56.3945 -56.3613 -56.3532 -44.3572 -16.6707 -14.8015  -2.8998
    -2.7299  -2.4484   0.0432   0.4336   0.7691   1.5365   1.7664   1.9001
     2.5376   4.7077   5.1765   5.2226   9.5117  11.7309  13.8526  15.4774

     occupation numbers 
     1.0000   1.0000   1.0000   1.0000   1.0000   1.0000   1.0000   1.0000
     1.0000   1.0000   1.0000   1.0000   1.0000   1.0000   1.0000   1.0001
     1.0736   0.0000   0.0000   0.0000   0.0000   0.0000   0.0000   0.0000

          k = 0.0000-0.2887 0.0949 (  3619 PWs)   bands (ev):

   -93.1532 -56.3908 -56.3871 -56.3592 -44.3470 -16.1694 -14.8251  -3.0400
    -2.3372  -2.1635  -1.3642  -0.1300   1.1525   1.6615   2.1078   2.1873
     2.5524   4.1591   5.0516   6.2206  10.3697  12.4416  13.6904  15.2169

     occupation numbers 
     1.0000   1.0000   1.0000   1.0000   1.0000   1.0000   1.0000   1.0000
     1.0000   1.0000   1.0000   1.0000   1.0000   1.0000   1.0033   1.0098
     1.0664   0.0000   0.0000   0.0000   0.0000   0.0000   0.0000   0.0000

          k = 0.0000-0.4330 0.0949 (  3600 PWs)   bands (ev):

   -93.1507 -56.4134 -56.3866 -56.3653 -44.3368 -15.5691 -14.8977  -3.4995
    -2.3500  -1.9633  -1.3221  -0.2478   0.6478   1.5496   1.8110   2.1129
     3.3519   4.4164   5.0958   7.8882   9.5630  12.1763  13.8573  14.8485

     occupation numbers 
     1.0000   1.0000   1.0000   1.0000   1.0000   1.0000   1.0000   1.0000
     1.0000   1.0000   1.0000   1.0000   1.0000   1.0000   1.0000   1.0036
     0.0011   0.0000   0.0000   0.0000   0.0000   0.0000   0.0000   0.0000

          k =-0.1250-0.3608 0.0949 (  3609 PWs)   bands (ev):

   -93.1515 -56.4018 -56.3878 -56.3675 -44.3398 -15.7730 -14.8552  -3.0777
    -2.5152  -1.8950  -1.4205  -0.7136   0.9677   1.6447   1.9924   2.3308
     3.0155   4.3475   4.7867   7.2383  10.6745  11.5935  13.4810  14.9323

     occupation numbers 
     1.0000   1.0000   1.0000   1.0000   1.0000   1.0000   1.0000   1.0000
     1.0000   1.0000   1.0000   1.0000   1.0000   1.0000   1.0005   1.0422
     0.1275   0.0000   0.0000   0.0000   0.0000   0.0000   0.0000   0.0000

          k =-0.1250-0.5052 0.0949 (  3600 PWs)   bands (ev):

   -93.1497 -56.4182 -56.3850 -56.3738 -44.3326 -15.2779 -14.9523  -3.6020
    -2.5345  -1.6407  -1.1233  -0.7012   0.3518   1.3974   1.7041   2.2459
     4.1048   4.6119   4.8891   8.3535   9.3291  12.4183  12.7293  13.9058

     occupation numbers 
     1.0000   1.0000   1.0000   1.0000   1.0000   1.0000   1.0000   1.0000
     1.0000   1.0000   1.0000   1.0000   1.0000   1.0000   1.0000   1.0193
     0.0000   0.0000   0.0000   0.0000   0.0000   0.0000   0.0000   0.0000

 ------ SPIN DOWN ----------


          k = 0.0000 0.0000 0.0000 (  3635 PWs)   bands (ev):

   -92.3910 -55.6600 -55.6600 -55.5387 -44.3868 -16.7429 -14.6651  -2.7521
    -2.3206  -2.3206   0.5351   1.3185   1.4881   1.4881   1.7007   1.7007
     3.3391   4.7404   5.6118   5.6118   8.8069  12.2838  12.5863  15.2449

     occupation numbers 
     1.0000   1.0000   1.0000   1.0000   1.0000   1.0000   1.0000   1.0000
     1.0000   1.0000   1.0000   1.0000   1.0000   1.0000   1.0000   1.0000
     0.0014   0.0000   0.0000   0.0000   0.0000   0.0000   0.0000   0.0000

          k = 0.0000 0.0000 0.0949 (  3682 PWs)   bands (ev):

   -92.3911 -55.6601 -55.6601 -55.5389 -44.3869 -16.7430 -14.6652  -2.7503
    -2.3206  -2.3206   0.4609   1.4437   1.4880   1.4880   1.7006   1.7006
     3.2918   4.6749   5.6116   5.6116   9.1476  11.2433  13.3226  15.4679

     occupation numbers 
     1.0000   1.0000   1.0000   1.0000   1.0000   1.0000   1.0000   1.0000
     1.0000   1.0000   1.0000   1.0000   1.0000   1.0000   1.0000   1.0000
     0.0033   0.0000   0.0000   0.0000   0.0000   0.0000   0.0000   0.0000

          k = 0.0000 0.1443 0.0000 (  3637 PWs)   bands (ev):

   -92.3900 -55.6711 -55.6626 -55.5371 -44.3826 -16.5513 -14.6685  -2.6060
    -2.4494  -2.2053   0.2979   0.7687   0.9007   1.5669   2.1242   2.3335
     3.3734   4.8739   5.3638   5.4981   9.2401  12.7710  13.0572  15.5526

     occupation numbers 
     1.0000   1.0000   1.0000   1.0000   1.0000   1.0000   1.0000   1.0000
     1.0000   1.0000   1.0000   1.0000   1.0000   1.0000   1.0042   1.0431
     0.0008   0.0000   0.0000   0.0000   0.0000   0.0000   0.0000   0.0000

          k = 0.0000 0.1443 0.0949 (  3638 PWs)   bands (ev):

   -92.3900 -55.6711 -55.6627 -55.5371 -44.3826 -16.5512 -14.6686  -2.6054
    -2.4485  -2.2053   0.2993   0.7686   0.8321   1.6680   2.1339   2.3335
     3.3307   4.9230   5.2602   5.4981   9.5311  11.7610  13.9628  15.4748

     occupation numbers 
     1.0000   1.0000   1.0000   1.0000   1.0000   1.0000   1.0000   1.0000
     1.0000   1.0000   1.0000   1.0000   1.0000   1.0000   1.0049   1.0431
     0.0017   0.0000   0.0000   0.0000   0.0000   0.0000   0.0000   0.0000

          k = 0.0000 0.2887 0.0000 (  3607 PWs)   bands (ev):

   -92.3873 -55.6980 -55.6689 -55.5328 -44.3722 -16.0477 -14.6901  -2.8206
    -2.0458  -1.9384  -1.1267   0.1474   1.3624   2.0298   2.3379   2.6484
     3.2424   4.5070   5.3555   6.1698  10.2698  12.4752  14.0971  14.4841

     occupation numbers 
     1.0000   1.0000   1.0000   1.0000   1.0000   1.0000   1.0000   1.0000
     1.0000   1.0000   1.0000   1.0000   1.0000   1.0010   1.0445   0.9584
     0.0073   0.0000   0.0000   0.0000   0.0000   0.0000   0.0000   0.0000

          k = 0.0000 0.2887 0.0949 (  3619 PWs)   bands (ev):

   -92.3874 -55.6980 -55.6689 -55.5329 -44.3723 -16.0477 -14.6902  -2.8209
    -2.0450  -1.9384  -1.1257   0.1474   1.3431   2.0299   2.3683   2.6484
     3.2191   4.5609   5.3555   6.0896  10.4431  12.3327  13.5689  15.2734

     occupation numbers 
     1.0000   1.0000   1.0000   1.0000   1.0000   1.0000   1.0000   1.0000
     1.0000   1.0000   1.0000   1.0000   1.0000   1.0010   1.0549   0.9584
     0.0104   0.0000   0.0000   0.0000   0.0000   0.0000   0.0000   0.0000

          k = 0.0000 0.4330 0.0000 (  3602 PWs)   bands (ev):

   -92.3847 -55.7250 -55.6752 -55.5288 -44.3619 -15.4448 -14.7605  -3.3077
    -2.2077  -1.7429  -0.9752  -0.0677   0.8657   2.2543   2.4698   2.8358
     3.1870   4.8030   5.3982   7.7882   9.4040  12.2487  13.7768  14.7037

     occupation numbers 
     1.0000   1.0000   1.0000   1.0000   1.0000   1.0000   1.0000   1.0000
     1.0000   1.0000   1.0000   1.0000   1.0000   1.0211   1.0824   0.4956
     0.0165   0.0000   0.0000   0.0000   0.0000   0.0000   0.0000   0.0000

          k = 0.0000 0.4330 0.0949 (  3600 PWs)   bands (ev):

   -92.3847 -55.7250 -55.6752 -55.5287 -44.3619 -15.4449 -14.7605  -3.3077
    -2.2078  -1.7429  -0.9745  -0.0677   0.8659   2.2528   2.4698   2.8397
     3.1746   4.8238   5.3982   7.7619   9.4070  12.3063  13.9501  14.4372

     occupation numbers 
     1.0000   1.0000   1.0000   1.0000   1.0000   1.0000   1.0000   1.0000
     1.0000   1.0000   1.0000   1.0000   1.0000   1.0208   1.0824   0.4853
     0.0197   0.0000   0.0000   0.0000   0.0000   0.0000   0.0000   0.0000

          k = 0.0000-0.5774 0.0000 (  3610 PWs)   bands (ev):

   -92.3837 -55.7362 -55.6779 -55.5271 -44.3577 -15.0754 -14.8896  -3.7362
    -2.0319  -1.7083  -0.8182  -0.0312   0.5904   2.1214   2.2833   2.7254
     3.9011   5.0489   5.4557   7.9690   9.7601  11.1115  14.2264  14.6249

     occupation numbers 
     1.0000   1.0000   1.0000   1.0000   1.0000   1.0000   1.0000   1.0000
     1.0000   1.0000   1.0000   1.0000   1.0000   1.0041   1.0281   0.7940
     0.0000   0.0000   0.0000   0.0000   0.0000   0.0000   0.0000   0.0000

          k = 0.0000-0.5774 0.0949 (  3582 PWs)   bands (ev):

   -92.3836 -55.7361 -55.6778 -55.5270 -44.3576 -15.0754 -14.8896  -3.7361
    -2.0319  -1.7083  -0.8181  -0.0311   0.5907   2.1213   2.2833   2.7253
     3.9012   5.0469   5.4558   7.9684   9.7688  11.1540  13.9373  14.3451

     occupation numbers 
     1.0000   1.0000   1.0000   1.0000   1.0000   1.0000   1.0000   1.0000
     1.0000   1.0000   1.0000   1.0000   1.0000   1.0041   1.0281   0.7942
     0.0000   0.0000   0.0000   0.0000   0.0000   0.0000   0.0000   0.0000

          k = 0.1250 0.2165 0.0000 (  3623 PWs)   bands (ev):

   -92.3881 -55.6889 -55.6684 -55.5341 -44.3753 -16.2033 -14.6803  -2.7270
    -2.1535  -2.0511  -0.6111  -0.0232   1.3443   1.9324   2.2576   2.7041
     3.3029   4.6619   5.2031   5.8778   9.9913  13.2182  13.9392  14.0957

     occupation numbers 
     1.0000   1.0000   1.0000   1.0000   1.0000   1.0000   1.0000   1.0000
     1.0000   1.0000   1.0000   1.0000   1.0000   1.0002   1.0218   0.8454
     0.0027   0.0000   0.0000   0.0000   0.0000   0.0000   0.0000   0.0000

          k = 0.1250 0.2165 0.0949 (  3623 PWs)   bands (ev):

   -92.3881 -55.6889 -55.6683 -55.5342 -44.3753 -16.2033 -14.6803  -2.7273
    -2.1525  -2.0509  -0.6102  -0.0232   1.3012   1.9857   2.2578   2.7176
     3.2785   4.7071   5.1738   5.8299  10.1623  12.5892  14.0748  14.7279

     occupation numbers 
     1.0000   1.0000   1.0000   1.0000   1.0000   1.0000   1.0000   1.0000
     1.0000   1.0000   1.0000   1.0000   1.0000   1.0004   1.0219   0.8132
     0.0041   0.0000   0.0000   0.0000   0.0000   0.0000   0.0000   0.0000

          k = 0.1250 0.3608 0.0000 (  3612 PWs)   bands (ev):

   -92.3855 -55.7131 -55.6775 -55.5300 -44.3650 -15.6496 -14.7187  -2.8695
    -2.3398  -1.6666  -1.1102  -0.4916   1.1786   2.3231   2.6356   2.8425
     3.0608   4.6992   5.0961   7.1552  10.5357  11.5336  13.4490  15.0705

     occupation numbers 
     1.0000   1.0000   1.0000   1.0000   1.0000   1.0000   1.0000   1.0000
     1.0000   1.0000   1.0000   1.0000   1.0000   1.0397   0.9792   0.4776
     0.0800   0.0000   0.0000   0.0000   0.0000   0.0000   0.0000   0.0000

          k = 0.1250 0.3608 0.0949 (  3609 PWs)   bands (ev):

   -92.3855 -55.7131 -55.6775 -55.5300 -44.3650 -15.6496 -14.7187  -2.8697
    -2.3398  -1.6665  -1.1093  -0.4916   1.1770   2.3222   2.6265   2.8547
     3.0525   4.7282   5.0869   7.1300  10.5401  11.5950  13.3481  14.9013

     occupation numbers 
     1.0000   1.0000   1.0000   1.0000   1.0000   1.0000   1.0000   1.0000
     1.0000   1.0000   1.0000   1.0000   1.0000   1.0394   0.9929   0.4454
     0.0874   0.0000   0.0000   0.0000   0.0000   0.0000   0.0000   0.0000

          k = 0.1250 0.5052 0.0000 (  3591 PWs)   bands (ev):

   -92.3836 -55.7300 -55.6840 -55.5270 -44.3576 -15.1541 -14.8124  -3.4262
    -2.3758  -1.4466  -0.8253  -0.5239   0.5637   2.2959   2.4097   2.8568
     3.9220   4.9716   5.1995   8.1854   9.2152  12.3272  12.6698  14.0426

     occupation numbers 
     1.0000   1.0000   1.0000   1.0000   1.0000   1.0000   1.0000   1.0000
     1.0000   1.0000   1.0000   1.0000   1.0000   1.0315   1.0688   0.4398
     0.0000   0.0000   0.0000   0.0000   0.0000   0.0000   0.0000   0.0000

          k = 0.1250 0.5052 0.0949 (  3600 PWs)   bands (ev):

   -92.3836 -55.7301 -55.6840 -55.5270 -44.3576 -15.1541 -14.8124  -3.4262
    -2.3759  -1.4467  -0.8251  -0.5239   0.5639   2.2958   2.4098   2.8562
     3.9194   4.9762   5.1984   8.1815   9.2193  12.3265  12.6959  14.0926

     occupation numbers 
     1.0000   1.0000   1.0000   1.0000   1.0000   1.0000   1.0000   1.0000
     1.0000   1.0000   1.0000   1.0000   1.0000   1.0315   1.0688   0.4415
     0.0000   0.0000   0.0000   0.0000   0.0000   0.0000   0.0000   0.0000

          k = 0.2500 0.4330 0.0000 (  3605 PWs)   bands (ev):

   -92.3837 -55.7216 -55.6926 -55.5270 -44.3577 -15.2070 -14.7610  -2.8578
    -2.6776  -1.6585  -0.9429  -0.6829   0.5719   2.4126   2.5026   3.0211
     3.9414   4.8574   4.9629   8.5144   8.8634  11.6682  13.5496  14.6463

     occupation numbers 
     1.0000   1.0000   1.0000   1.0000   1.0000   1.0000   1.0000   1.0000
     1.0000   1.0000   1.0000   1.0000   1.0000   1.0697   1.0825   0.1207
     0.0000   0.0000   0.0000   0.0000   0.0000   0.0000   0.0000   0.0000

          k = 0.2500 0.4330 0.0949 (  3614 PWs)   bands (ev):

   -92.3837 -55.7217 -55.6926 -55.5270 -44.3577 -15.2071 -14.7610  -2.8578
    -2.6777  -1.6585  -0.9429  -0.6826   0.5718   2.4127   2.5030   3.0184
     3.9447   4.8475   4.9702   8.5150   8.8771  11.6360  13.5377  14.6558

     occupation numbers 
     1.0000   1.0000   1.0000   1.0000   1.0000   1.0000   1.0000   1.0000
     1.0000   1.0000   1.0000   1.0000   1.0000   1.0697   1.0825   0.1240
     0.0000   0.0000   0.0000   0.0000   0.0000   0.0000   0.0000   0.0000

          k = 0.2500 0.5774 0.0000 (  3600 PWs)   bands (ev):

   -92.3829 -55.7222 -55.7017 -55.5258 -44.3546 -14.9911 -14.8000  -3.0128
    -2.6229  -1.8377  -0.7776  -0.4613   0.0842   2.1660   2.7088   2.9542
     4.8234   4.8952   5.1722   6.9323  10.6526  11.6173  12.2643  14.7052

     occupation numbers 
     1.0000   1.0000   1.0000   1.0000   1.0000   1.0000   1.0000   1.0000
     1.0000   1.0000   1.0000   1.0000   1.0000   1.0075   0.8344   0.2211
     0.0000   0.0000   0.0000   0.0000   0.0000   0.0000   0.0000   0.0000

          k = 0.2500 0.5774 0.0949 (  3599 PWs)   bands (ev):

   -92.3829 -55.7222 -55.7017 -55.5258 -44.3546 -14.9911 -14.8000  -3.0128
    -2.6230  -1.8377  -0.7776  -0.4613   0.0842   2.1660   2.7088   2.9540
     4.8298   4.8951   5.1651   6.9311  10.6647  11.6059  12.2909  14.7073

     occupation numbers 
     1.0000   1.0000   1.0000   1.0000   1.0000   1.0000   1.0000   1.0000
     1.0000   1.0000   1.0000   1.0000   1.0000   1.0075   0.8344   0.2214
     0.0000   0.0000   0.0000   0.0000   0.0000   0.0000   0.0000   0.0000

          k = 0.0000-0.1443 0.0949 (  3638 PWs)   bands (ev):

   -92.3900 -55.6711 -55.6627 -55.5371 -44.3826 -16.5513 -14.6686  -2.6052
    -2.4487  -2.2053   0.2968   0.7686   0.8375   1.6622   2.1371   2.3334
     3.3342   4.8680   5.3185   5.4981   9.5048  11.7962  13.9366  15.5114

     occupation numbers 
     1.0000   1.0000   1.0000   1.0000   1.0000   1.0000   1.0000   1.0000
     1.0000   1.0000   1.0000   1.0000   1.0000   1.0000   1.0051   1.0430
     0.0016   0.0000   0.0000   0.0000   0.0000   0.0000   0.0000   0.0000

          k = 0.0000-0.2887 0.0949 (  3619 PWs)   bands (ev):

   -92.3874 -55.6980 -55.6689 -55.5329 -44.3723 -16.0477 -14.6901  -2.8209
    -2.0453  -1.9384  -1.1255   0.1474   1.3393   2.0356   2.3675   2.6484
     3.2354   4.5057   5.3555   6.1514  10.3468  12.3784  13.6820  15.2707

     occupation numbers 
     1.0000   1.0000   1.0000   1.0000   1.0000   1.0000   1.0000   1.0000
     1.0000   1.0000   1.0000   1.0000   1.0000   1.0011   1.0546   0.9583
     0.0081   0.0000   0.0000   0.0000   0.0000   0.0000   0.0000   0.0000

          k = 0.0000-0.4330 0.0949 (  3600 PWs)   bands (ev):

   -92.3847 -55.7250 -55.6752 -55.5287 -44.3619 -15.4448 -14.7605  -3.3077
    -2.2078  -1.7429  -0.9743  -0.0677   0.8648   2.2538   2.4699   2.8299
     3.1951   4.7983   5.3981   7.8075   9.4004  12.1551  13.8031  14.7039

     occupation numbers 
     1.0000   1.0000   1.0000   1.0000   1.0000   1.0000   1.0000   1.0000
     1.0000   1.0000   1.0000   1.0000   1.0000   1.0210   1.0824   0.5118
     0.0147   0.0000   0.0000   0.0000   0.0000   0.0000   0.0000   0.0000

          k =-0.1250-0.3608 0.0949 (  3609 PWs)   bands (ev):

   -92.3855 -55.7131 -55.6775 -55.5300 -44.3650 -15.6496 -14.7187  -2.8697
    -2.3398  -1.6666  -1.1090  -0.4916   1.1759   2.3241   2.6290   2.8346
     3.0782   4.6989   5.0964   7.1566  10.5316  11.5180  13.4442  14.9773

     occupation numbers 
     1.0000   1.0000   1.0000   1.0000   1.0000   1.0000   1.0000   1.0000
     1.0000   1.0000   1.0000   1.0000   1.0000   1.0400   0.9893   0.4989
     0.0659   0.0000   0.0000   0.0000   0.0000   0.0000   0.0000   0.0000

          k =-0.1250-0.5052 0.0949 (  3600 PWs)   bands (ev):

   -92.3837 -55.7301 -55.6840 -55.5270 -44.3576 -15.1541 -14.8124  -3.4262
    -2.3759  -1.4467  -0.8251  -0.5238   0.5636   2.2960   2.4097   2.8557
     3.9251   4.9654   5.2002   8.1835   9.2408  12.3340  12.6364  13.8792

     occupation numbers 
     1.0000   1.0000   1.0000   1.0000   1.0000   1.0000   1.0000   1.0000
     1.0000   1.0000   1.0000   1.0000   1.0000   1.0315   1.0688   0.4428
     0.0000   0.0000   0.0000   0.0000   0.0000   0.0000   0.0000   0.0000

     the Fermi energy is     2.8721 ev

!    total energy              =    -474.98781805 Ry
     total all-electron energy =     -3102.859955 Ry
     estimated scf accuracy    <          6.1E-09 Ry
     smearing contrib. (-TS)   =       0.00239797 Ry
     internal energy E=F+TS    =    -474.99021602 Ry

     The total energy is F=E-TS. E is the sum of the following terms:
     one-electron contribution =    -824.69259475 Ry
     hartree contribution      =     419.91971936 Ry
     xc contribution           =     -48.90926265 Ry
     ewald contribution        =      85.40120953 Ry
     one-center paw contrib.   =    -106.70928751 Ry
      -> PAW hartree energy AE =     278.22742130 Ry
      -> PAW hartree energy PS =    -276.88004542 Ry
      -> PAW xc energy AE      =    -154.13184210 Ry
      -> PAW xc energy PS      =      46.07517870 Ry
      -> total E_H with PAW    =     421.26709525 Ry
      -> total E_XC with PAW   =    -156.96592604 Ry

     total magnetization       =     0.74 Bohr mag/cell
     absolute magnetization    =     0.93 Bohr mag/cell

     convergence has been achieved in  24 iterations

     Forces acting on atoms (cartesian axes, Ry/au):

     atom    1 type  1   force =     0.00000000    0.00000000    0.01835094
     atom    2 type  2   force =     0.00000000    0.00000000   -0.01781104
     atom    3 type  2   force =     0.00000000    0.00000000   -0.01426682
     atom    4 type  3   force =     0.00000000    0.00000000    0.01372692
     The non-local contrib.  to forces
     atom    1 type  1   force =     0.00000000    0.00000000    0.01829205
     atom    2 type  2   force =     0.00000000    0.00000000   -1.33199981
     atom    3 type  2   force =     0.00000000    0.00000000    1.07627185
     atom    4 type  3   force =     0.00000000   -0.00000000    0.01198762
     The ionic contribution  to forces
     atom    1 type  1   force =    -0.00000000    0.00000000    5.26139636
     atom    2 type  2   force =     0.00000000   -0.00000000   42.70407014
     atom    3 type  2   force =    -0.00000000    0.00000000  -39.00049739
     atom    4 type  3   force =     0.00000000   -0.00000000   -8.96496911
     The local contribution  to forces
     atom    1 type  1   force =     0.00000000   -0.00000000   -5.26118323
     atom    2 type  2   force =     0.00000001   -0.00000001  -41.40148527
     atom    3 type  2   force =    -0.00000001    0.00000001   37.91902017
     atom    4 type  3   force =     0.00000002   -0.00000001    8.96672321
     The core correction contribution to forces
     atom    1 type  1   force =    -0.00000000    0.00000000   -0.00014374
     atom    2 type  2   force =    -0.00000000    0.00000000    0.01159741
     atom    3 type  2   force =     0.00000000   -0.00000000   -0.00906123
     atom    4 type  3   force =     0.00000000    0.00000000    0.00000000
     The Hubbard contrib.    to forces
     atom    1 type  1   force =     0.00000000    0.00000000    0.00000000
     atom    2 type  2   force =     0.00000000    0.00000000    0.00000000
     atom    3 type  2   force =     0.00000000    0.00000000    0.00000000
     atom    4 type  3   force =     0.00000000    0.00000000    0.00000000
     The SCF correction term to forces
     atom    1 type  1   force =     0.00000000   -0.00000000   -0.00001278
     atom    2 type  2   force =     0.00000000   -0.00000000    0.00000421
     atom    3 type  2   force =    -0.00000000    0.00000000   -0.00000251
     atom    4 type  3   force =     0.00000000   -0.00000000   -0.00001708

     Total force =     0.032341     Total SCF correction =     0.000022

     Writing all to output data dir ./out/pw.save/ :
     XML data file, charge density, pseudopotentials, collected wavefunctions
 
     init_run     :     12.91s CPU      2.99s WALL (       1 calls)
     electrons    :    125.13s CPU     33.33s WALL (       1 calls)
     forces       :      0.69s CPU      0.55s WALL (       1 calls)

     Called by init_run:
     wfcinit      :      0.28s CPU      0.35s WALL (       1 calls)
     wfcinit:atom :      0.04s CPU      0.04s WALL (      50 calls)
     wfcinit:wfcr :      0.18s CPU      0.22s WALL (      50 calls)
     potinit      :     12.11s CPU      2.08s WALL (       1 calls)
     hinit0       :      0.42s CPU      0.41s WALL (       1 calls)

     Called by electrons:
     c_bands      :     16.50s CPU     16.38s WALL (      24 calls)
     sum_band     :      2.78s CPU      2.76s WALL (      24 calls)
     v_of_rho     :      0.44s CPU      0.22s WALL (      25 calls)
     v_h          :      0.30s CPU      0.04s WALL (      25 calls)
     v_xc         :      0.14s CPU      0.18s WALL (      26 calls)
     newd         :      0.58s CPU      0.46s WALL (      25 calls)
                                        0.46s GPU  (      25 calls)
     PAW_pot      :    107.85s CPU     13.53s WALL (      25 calls)
     mix_rho      :      0.44s CPU      0.45s WALL (      24 calls)

     Called by c_bands:
     init_us_2    :      1.05s CPU      0.99s WALL (    2500 calls)
     cegterg      :     14.38s CPU     14.37s WALL (    1200 calls)

     Called by sum_band:
     sum_band:wei :      0.02s CPU      0.03s WALL (      24 calls)
                                        0.03s GPU  (      24 calls)
     sum_band:loo :      1.74s CPU      1.70s WALL (      24 calls)
                                        1.70s GPU  (      24 calls)
     sum_band:buf :      0.25s CPU      0.27s WALL (    1200 calls)
                                        0.26s GPU  (    1200 calls)
     sum_band:ini :      0.48s CPU      0.48s WALL (    1200 calls)
                                        0.47s GPU  (    1200 calls)
     sum_band:cal :      0.05s CPU      0.07s WALL (    1200 calls)
                                        0.06s GPU  (    1200 calls)
     sum_band:bec :      0.26s CPU      0.28s WALL (    1200 calls)
                                        0.27s GPU  (    1200 calls)
     addusdens    :      0.81s CPU      0.82s WALL (      24 calls)
                                        0.82s GPU  (      24 calls)
     addusd:skk   :      0.00s CPU      0.00s WALL (      72 calls)
                                        0.00s GPU  (      72 calls)

     Called by *egterg:
     cdiaghg      :      4.49s CPU      4.64s WALL (    5664 calls)
                                        4.57s GPU  (    5664 calls)
     cegterg:over :      1.28s CPU      1.33s WALL (    4464 calls)
     cegterg:upda :      0.83s CPU      0.83s WALL (    4464 calls)
     cegterg:last :      0.17s CPU      0.16s WALL (    2378 calls)
     h_psi        :      5.27s CPU      5.25s WALL (    5714 calls)
                                        5.18s GPU  (    5714 calls)
     s_psi        :      0.86s CPU      0.91s WALL (    5714 calls)
     g_psi        :      0.02s CPU      0.11s WALL (    4464 calls)
                                        0.05s GPU  (    4464 calls)

     Called by h_psi:
     h_psi:calbec :      0.17s CPU      0.33s WALL (    5714 calls)
                                        0.25s GPU  (    5714 calls)
     vloc_psi     :      3.70s CPU      3.57s WALL (    5714 calls)
                                        3.50s GPU  (    5714 calls)
     add_vuspsi   :      0.78s CPU      0.94s WALL (    5714 calls)
                                        0.87s GPU  (    5714 calls)

     General routines
     calbec       :      0.19s CPU      0.22s WALL (    7114 calls)
     fft          :      3.52s CPU      0.64s WALL (     638 calls)
                                        0.02s GPU  (     588 calls)
     ffts         :      4.76s CPU      0.85s WALL (      98 calls)
                                        0.00s GPU  (      48 calls)
     fftw         :      0.35s CPU      1.24s WALL (   18730 calls)
                                        1.03s GPU  (   18730 calls)
     interpolate  :      8.48s CPU      1.50s WALL (      50 calls)
 
     Parallel routines

     PAW routines
     PAW_pot      :    107.85s CPU     13.53s WALL (      25 calls)
     PAW_symme    :      0.03s CPU      0.00s WALL (      49 calls)
 
     PWSCF        :   2m19.60s CPU     37.38s WALL

 
   This run was terminated on:   2:21:49  12Jul2026            

=------------------------------------------------------------------------------=
   JOB DONE.
=------------------------------------------------------------------------------=
Warning: ieee_divide_by_zero is signaling
Warning: ieee_inexact is signaling
FORTRAN STOP
